      -----------------------------------------------------------      
     |                   =====================                   |     
     |                           x T B                           |     
     |                   =====================                   |     
     |                         S. Grimme                         |     
     |          Mulliken Center for Theoretical Chemistry        |     
     |                    University of Bonn                     |     
      -----------------------------------------------------------      

   * xtb version 6.3.3 (71d3805) compiled by 'conda@b85dec0bf610' on 2021-01-07

   xtb is free software: you can redistribute it and/or modify it under
   the terms of the GNU Lesser General Public License as published by
   the Free Software Foundation, either version 3 of the License, or
   (at your option) any later version.
   
   xtb is distributed in the hope that it will be useful,
   but WITHOUT ANY WARRANTY; without even the implied warranty of
   MERCHANTABILITY or FITNESS FOR A PARTICULAR PURPOSE.  See the
   GNU Lesser General Public License for more details.
   
   Cite this work as:
   * C. Bannwarth, E. Caldeweyher, S. Ehlert, A. Hansen, P. Pracht,
     J. Seibert, S. Spicher, S. Grimme, WIREs Comput. Mol. Sci., 2020,
     e01493. DOI: 10.1002/wcms.1493
   
   for GFN2-xTB:
   * S. Grimme, C. Bannwarth, P. Shushkov, J. Chem. Theory Comput., 2017,
     13, 1989-2009. DOI: 10.1021/acs.jctc.7b00118
   for GFN1-xTB:
   * C. Bannwarth, S. Ehlert and S. Grimme., J. Chem. Theory Comput., 2019,
     15, 1652-1671. DOI: 10.1021/acs.jctc.8b01176
   for GFN0-xTB:
   * P. Pracht, E. Caldeweyher, S. Ehlert, S. Grimme, ChemRxiv, 2019, preprint.
     DOI: 10.26434/chemrxiv.8326202.v1
   for GFN-FF:
   * S. Spicher and S. Grimme, Angew. Chem. Int. Ed., 2020, 59, 15665-15673.
     DOI: 10.1002/anie.202004239
   
   for DFT-D4:
   * E. Caldeweyher, C. Bannwarth and S. Grimme, J. Chem. Phys., 2017,
     147, 034112. DOI: 10.1063/1.4993215
   * E. Caldeweyher, S. Ehlert, A. Hansen, H. Neugebauer, S. Spicher,
     C. Bannwarth and S. Grimme, J. Chem. Phys., 2019, 150, 154122.
     DOI: 10.1063/1.5090222
   * E. Caldeweyher, J.-M. Mewes, S. Ehlert and S. Grimme, Phys. Chem. Chem. Phys.
     2020, 22, 8499-8512. DOI: 10.1039/D0CP00502A
   
   for sTDA-xTB:
   * S. Grimme and C. Bannwarth, J. Chem. Phys., 2016, 145, 054103.
     DOI: 10.1063/1.4959605
   
   in the mass-spec context:
   * V. Asgeirsson, C. Bauer and S. Grimme, Chem. Sci., 2017, 8, 4879.
     DOI: 10.1039/c7sc00601b
   * J. Koopman and S. Grimme, ACS Omega 2019, 4, 12, 15120-15133.
     DOI: 10.1021/acsomega.9b02011
   
   for metadynamics refer to:
   * S. Grimme, J. Chem. Theory Comput., 2019, 155, 2847-2862
     DOI: 10.1021/acs.jctc.9b00143
   
   with help from (in alphabetical order)
   C. Bannwarth, F. Bohle, G. Brandenburg, E. Caldeweyher, M. Checinski,
   S. Dohm, S. Ehlert, S. Ehrlich, F. März, H. Neugebauer, J. Pisarek,
   P. Pracht, P. Shushkov, and S. Spicher.
   
 * started run on 2024/05/31 at 17:48:54.518     

           -------------------------------------------------
          |                Calculation Setup                |
           -------------------------------------------------

          program call               : /home/thijs/miniconda3/envs/ts-tools/bin/xtb path_opt1_xtb.xyz --chrg -1 --uhf 0 --opt --gbsa Water --input xcontrol_path_opt1_xtb
          hostname                   : dale
          coordinate file            : path_opt1_xtb.xyz
          omp threads                :                     4
          number of atoms            :                     6
          number of electrons        :                    22
          charge                     :                    -1
          spin                       :                   0.0
          first test random number   :      0.77147674808543

   ID    Z sym.   atoms
    1    6 C      1
    2   17 Cl     2
    3    1 H      3-5
    4    9 F      6
constraining bond 1 6 to    2.9314000 Å, actual value:    3.2313515 Å
constraining bond 1 2 to    2.0360000 Å, actual value:    1.9778271 Å

molecular fragmentation (1/2 indicates fragments):
111112
# atoms in fragment 1/2:     5     1
 fragment masses (1/2) :       50.49       19.00
CMA distance (Bohr)    :   8.699
constraining FC (au)   :  2.0000

           -------------------------------------------------
          |                 G F N 2 - x T B                 |
           -------------------------------------------------

        Reference                      10.1021/acs.jctc.8b01176
      * Hamiltonian:
        H0-scaling (s, p, d)           1.850000    2.230000    2.230000
        zeta-weighting                 0.500000
      * Dispersion:
        s8                             2.700000
        a1                             0.520000
        a2                             5.000000
        s9                             5.000000
      * Repulsion:
        kExp                           1.500000    1.000000
        rExp                           1.000000
      * Coulomb:
        alpha                          2.000000
        third order                    shell-resolved
        anisotropic                    true
        a3                             3.000000
        a5                             4.000000
        cn-shift                       1.200000
        cn-exp                         4.000000
        max-rad                        5.000000

      * Solvation model:               GBSA
        Solvent                        Water
        Parameter file                 internal GFN2-xTB/GBSA
        Dielectric constant                8.0200E+01
        Reference state                gsolv [1 M gas/solution]
        Free energy shift                  1.8574E-03 Eh       1.1656E+00 kcal/mol
        Temperature                        2.9815E+02 K
        Density                            1.0000E+00 kg/L
        Solvent mass                       1.8000E+01 g/mol
        Interaction kernel             Still
        Born radius scaling (c1)           1.5524E+00
        Born radii integrator          GBOBC
        Born offset                        2.4628E-02 a0       4.6540E-02 AA
        H-bond correction              true
        Ion screening                  false
        Surface tension                    1.0000E-05 Eh       1.5569E+01 dyn/cm
        Grid points                               230 per atom

          ...................................................
          :                      SETUP                      :
          :.................................................:
          :  # basis functions                  21          :
          :  # atomic orbitals                  20          :
          :  # shells                           10          :
          :  # electrons                        22          :
          :  max. iterations                   250          :
          :  Hamiltonian                  GFN2-xTB          :
          :  restarted?                      false          :
          :  GBSA solvation                   true          :
          :  PC potential                    false          :
          :  electronic temp.          300.0000000     K    :
          :  accuracy                    1.0000000          :
          :  -> integral cutoff          0.2500000E+02      :
          :  -> integral neglect         0.1000000E-07      :
          :  -> SCF convergence          0.1000000E-05 Eh   :
          :  -> wf. convergence          0.1000000E-03 e    :
          :  Broyden damping             0.4000000          :
          ...................................................

 iter      E             dE          RMSdq      gap      omega  full diag
   1    -13.2494809 -0.132495E+02  0.583E+00    5.92       0.0  T
   2    -13.3151066 -0.656257E-01  0.322E+00    3.45       1.0  T
   3    -13.3184569 -0.335033E-02  0.177E+00    3.33       1.0  T
   4    -13.3187019 -0.244980E-03  0.198E-01    2.70       1.0  T
   5    -13.3187045 -0.257339E-05  0.135E-01    2.75       1.0  T
   6    -13.3187280 -0.235503E-04  0.897E-02    2.72       1.0  T
   7    -13.3187465 -0.184779E-04  0.265E-02    2.72       1.5  T
   8    -13.3187474 -0.907465E-06  0.167E-02    2.71       2.4  T
   9    -13.3187480 -0.589526E-06  0.450E-04    2.71      90.8  T
  10    -13.3187480 -0.198577E-09  0.263E-04    2.71     155.2  T

   *** convergence criteria satisfied after 10 iterations ***

         #    Occupation            Energy/Eh            Energy/eV
      -------------------------------------------------------------
         1        2.0000           -1.0509288             -28.5972
       ...           ...                  ...                  ...
         5        2.0000           -0.5039662             -13.7136
         6        2.0000           -0.4815748             -13.1043
         7        2.0000           -0.4200282             -11.4295
         8        2.0000           -0.4200271             -11.4295
         9        2.0000           -0.3350278              -9.1166
        10        2.0000           -0.3344253              -9.1002
        11        2.0000           -0.3344247              -9.1002 (HOMO)
        12                         -0.2348005              -6.3892 (LUMO)
        13                          0.0277935               0.7563
        14                          0.0278036               0.7566
        15                          0.0297871               0.8105
        16                          0.0297942               0.8107
       ...                                ...                  ...
        20                          0.2320960               6.3157
      -------------------------------------------------------------
                  HL-Gap            0.0996243 Eh            2.7109 eV
             Fermi-level           -0.2846126 Eh           -7.7447 eV

 SCC (total)                   0 d,  0 h,  0 min,  0.005 sec
 SCC setup                      ...        0 min,  0.001 sec ( 12.986%)
 Dispersion                     ...        0 min,  0.000 sec (  0.889%)
 classical contributions        ...        0 min,  0.000 sec (  0.888%)
 integral evaluation            ...        0 min,  0.001 sec ( 31.853%)
 iterations                     ...        0 min,  0.002 sec ( 41.935%)
 molecular gradient             ...        0 min,  0.000 sec (  9.177%)
 printout                       ...        0 min,  0.000 sec (  1.998%)

         :::::::::::::::::::::::::::::::::::::::::::::::::::::
         ::                     SUMMARY                     ::
         :::::::::::::::::::::::::::::::::::::::::::::::::::::
         :: total energy             -12.595421755143 Eh    ::
         :: total w/o Gsasa/hb       -12.592665599472 Eh    ::
         :: gradient norm              3.515002905267 Eh/a0 ::
         :: HOMO-LUMO gap              2.710914016570 eV    ::
         ::.................................................::
         :: SCC energy               -13.318747981773 Eh    ::
         :: -> isotropic ES            0.279836186498 Eh    ::
         :: -> anisotropic ES         -0.000845721728 Eh    ::
         :: -> anisotropic XC          0.004784378788 Eh    ::
         :: -> dispersion             -0.001784788200 Eh    ::
         :: -> Gsolv                  -0.137922348088 Eh    ::
         ::    -> Gborn               -0.135166192417 Eh    ::
         ::    -> Gsasa                0.001014103550 Eh    ::
         ::    -> Ghb                 -0.005627702348 Eh    ::
         ::    -> Gshift               0.001857443127 Eh    ::
         :: repulsion energy           0.056573876213 Eh    ::
         :: add. restraining           0.666753329388 Eh    ::
         :: total charge              -1.000000000000 e     ::
         :::::::::::::::::::::::::::::::::::::::::::::::::::::

      ----------------------------------------------------------- 
     |                   =====================                   |
     |                        A N C O P T                        |
     |                   =====================                   |
     |               Approximate Normal Coordinate               |
     |                Rational Function Optimizer                |
      ----------------------------------------------------------- 

          ...................................................
          :                      SETUP                      :
          :.................................................:
          :   optimization level            normal          :
          :   max. optcycles                   200          :
          :   ANC micro-cycles                  20          :
          :   degrees of freedom                12          :
          :.................................................:
          :   RF solver                   davidson          :
          :   write xtbopt.log                true          :
          :   linear?                        false          :
          :   energy convergence         0.5000000E-05 Eh   :
          :   grad. convergence          0.1000000E-02 Eh/α :
          :   maximium RF displ.         1.0000000          :
          :   Hlow (freq-cutoff)         0.1000000E-01      :
          :   Hmax (freq-cutoff)         5.0000000          :
          :   S6 in model hess.         20.0000000          :
          ...................................................

generating ANC from model Hessian ...
Using Lindh-Hessian (1995)
 Shifting diagonal of input Hessian by    2.3094488280514507E-002
 Lowest  eigenvalues of input Hessian
    0.010000    0.010021    0.000000    0.000000    0.000000    0.000000
    0.000000    0.000000    0.098743    0.114113    0.114127    0.213913
    0.213926    0.482779    1.369898    1.370202    4.118052   12.476784
 Highest eigenvalues
    0.213926    0.482779    1.369898    1.370202    4.118052   12.476784


........................................................................
.............................. CYCLE    1 ..............................
........................................................................
   1    -13.3187480 -0.133187E+02  0.591E-05    2.71       0.0  T
   2    -13.3187480 -0.322231E-11  0.447E-05    2.71     913.2  T
   3    -13.3187480 -0.159517E-11  0.348E-05    2.71    1171.9  T
     SCC iter.                  ...        0 min,  0.001 sec
     gradient                   ...        0 min,  0.000 sec
 * total energy  :   -12.5954218 Eh     change       -0.1476224E-09 Eh
   gradient norm :     3.5150039 Eh/α   predicted     0.0000000E+00 (-100.00%)
   displ. norm   :     0.5264914 α      lambda       -0.1847236E+01
   maximum displ.:     0.4711818 α      in ANC's #12, #11, #8, ...

........................................................................
.............................. CYCLE    2 ..............................
........................................................................
   1    -13.3023782 -0.133024E+02  0.151E+00    1.09       0.0  T
   2    -13.3035114 -0.113322E-02  0.586E-01    1.03       1.0  T
   3    -13.3039669 -0.455503E-03  0.533E-01    1.28       1.0  T
   4    -13.3042564 -0.289528E-03  0.140E-01    1.30       1.0  T
   5    -13.3042825 -0.260744E-04  0.811E-02    1.28       1.0  T
   6    -13.3043030 -0.205616E-04  0.286E-02    1.28       1.4  T
   7    -13.3043056 -0.255004E-05  0.650E-03    1.29       6.3  T
   8    -13.3043056 -0.486142E-07  0.116E-03    1.29      35.1  T
   9    -13.3043056 -0.196608E-08  0.133E-04    1.29     306.2  T
  10    -13.3043056 -0.364153E-12  0.227E-05    1.29    1801.7  T
     SCC iter.                  ...        0 min,  0.001 sec
     gradient                   ...        0 min,  0.000 sec
 * total energy  :   -12.9742699 Eh     change       -0.3788482E+00 Eh
   gradient norm :     2.5171027 Eh/α   predicted    -0.1179639E+01 ( 211.38%)
   displ. norm   :     0.2255074 α      lambda       -0.5386456E+00
   maximum displ.:     0.2010170 α      in ANC's #12, #11, #8, ...

........................................................................
.............................. CYCLE    3 ..............................
........................................................................
   1    -13.3170198 -0.133170E+02  0.755E-01    2.53       0.0  T
   2    -13.3173125 -0.292615E-03  0.329E-01    2.49       1.0  T
   3    -13.3173665 -0.540152E-04  0.225E-01    2.35       1.0  T
   4    -13.3174131 -0.465810E-04  0.107E-01    2.29       1.0  T
   5    -13.3174417 -0.286116E-04  0.573E-02    2.27       1.0  T
   6    -13.3174510 -0.934734E-05  0.154E-02    2.27       2.6  T
   7    -13.3174517 -0.683176E-06  0.164E-03    2.26      24.9  T
   8    -13.3174517 -0.426089E-09  0.171E-04    2.26     238.9  T
   9    -13.3174517 -0.316085E-10  0.208E-05    2.26    1958.1  T
     SCC iter.                  ...        0 min,  0.001 sec
     gradient                   ...        0 min,  0.000 sec
 * total energy  :   -13.2540112 Eh     change       -0.2797412E+00 Eh
   gradient norm :     0.0969599 Eh/α   predicted    -0.2830189E+00 (   1.17%)
   displ. norm   :     0.1493606 α      lambda       -0.3659067E-02
   maximum displ.:     0.1432531 α      in ANC's #3, #8, #12, ...

........................................................................
.............................. CYCLE    4 ..............................
........................................................................
   1    -13.3166911 -0.133167E+02  0.393E-01    2.28       0.0  T
   2    -13.3167091 -0.179763E-04  0.228E-01    2.31       1.0  T
   3    -13.3167061  0.297627E-05  0.748E-02    2.31       1.0  T
   4    -13.3167127 -0.656618E-05  0.880E-03    2.32       4.6  T
   5    -13.3167129 -0.146004E-06  0.610E-03    2.32       6.7  T
   6    -13.3167130 -0.108432E-06  0.324E-03    2.32      12.6  T
   7    -13.3167130 -0.327226E-07  0.108E-03    2.32      37.7  T
   8    -13.3167130 -0.511420E-09  0.310E-05    2.32    1317.0  T
   9    -13.3167130 -0.239808E-12  0.746E-06    2.32    5469.1  T
     SCC iter.                  ...        0 min,  0.001 sec
     gradient                   ...        0 min,  0.000 sec
 * total energy  :   -13.2563251 Eh     change       -0.2313953E-02 Eh
   gradient norm :     0.0140772 Eh/α   predicted    -0.1870353E-02 ( -19.17%)
   displ. norm   :     0.0703046 α      lambda       -0.5238735E-03
   maximum displ.:     0.0621240 α      in ANC's #3, #8, #2, ...

........................................................................
.............................. CYCLE    5 ..............................
........................................................................
   1    -13.3138515 -0.133139E+02  0.174E-01    2.30       0.0  T
   2    -13.3138534 -0.191412E-05  0.103E-01    2.32       1.0  T
   3    -13.3138529  0.429089E-06  0.230E-02    2.32       1.8  T
   4    -13.3138539 -0.929488E-06  0.436E-03    2.32       9.4  T
   5    -13.3138539 -0.415638E-07  0.306E-03    2.32      13.3  T
   6    -13.3138539 -0.292909E-07  0.135E-03    2.32      30.3  T
   7    -13.3138540 -0.508336E-08  0.462E-04    2.32      88.4  T
   8    -13.3138540 -0.765201E-10  0.498E-05    2.32     819.4  T
     SCC iter.                  ...        0 min,  0.001 sec
     gradient                   ...        0 min,  0.000 sec
 * total energy  :   -13.2565680 Eh     change       -0.2428536E-03 Eh
   gradient norm :     0.0078501 Eh/α   predicted    -0.2632334E-03 (   8.39%)
   displ. norm   :     0.0647025 α      lambda       -0.5152275E-04
   maximum displ.:     0.0610257 α      in ANC's #2, #1, #8, ...

........................................................................
.............................. CYCLE    6 ..............................
........................................................................
   1    -13.3135385 -0.133135E+02  0.107E-01    2.32       0.0  T
   2    -13.3135386 -0.996596E-07  0.634E-02    2.32       1.0  T
   3    -13.3135386 -0.468149E-07  0.278E-03    2.32      14.7  T
   4    -13.3135386 -0.108119E-07  0.169E-03    2.32      24.1  T
   5    -13.3135386 -0.357503E-08  0.782E-04    2.32      52.2  T
   6    -13.3135386 -0.924357E-09  0.409E-04    2.32      99.9  T
     SCC iter.                  ...        0 min,  0.001 sec
     gradient                   ...        0 min,  0.000 sec
 * total energy  :   -13.2565150 Eh     change        0.5292768E-04 Eh
   gradient norm :     0.0027687 Eh/α   predicted    -0.2586921E-04 (-148.88%)
   displ. norm   :     0.0503571 α      lambda       -0.1257119E-03
   maximum displ.:     0.0472351 α      in ANC's #2, #1, #3, ...

........................................................................
.............................. CYCLE    7 ..............................
........................................................................
   1    -13.3139081 -0.133139E+02  0.849E-02    2.32       0.0  T
   2    -13.3139081 -0.729696E-07  0.502E-02    2.32       1.0  T
   3    -13.3139082 -0.215776E-07  0.279E-03    2.32      14.7  T
   4    -13.3139082 -0.160544E-07  0.136E-03    2.32      29.9  T
   5    -13.3139082 -0.246472E-08  0.660E-04    2.32      61.9  T
   6    -13.3139082 -0.712495E-09  0.350E-04    2.32     116.7  T
     SCC iter.                  ...        0 min,  0.001 sec
     gradient                   ...        0 min,  0.000 sec
 * total energy  :   -13.2565772 Eh     change       -0.6215240E-04 Eh
   gradient norm :     0.0002282 Eh/α   predicted    -0.6301684E-04 (   1.39%)
   displ. norm   :     0.0021141 α      lambda       -0.1276563E-06
   maximum displ.:     0.0014086 α      in ANC's #1, #3, #2, ...

........................................................................
.............................. CYCLE    8 ..............................
........................................................................
   1    -13.3138315 -0.133138E+02  0.440E-03    2.32       0.0  T
   2    -13.3138315 -0.670276E-09  0.261E-03    2.32      15.6  T
   3    -13.3138315  0.146098E-09  0.387E-04    2.32     105.5  T
   4    -13.3138315 -0.340656E-09  0.812E-05    2.32     502.6  T
     SCC iter.                  ...        0 min,  0.001 sec
     gradient                   ...        0 min,  0.000 sec
 * total energy  :   -13.2565772 Eh     change        0.9197604E-08 Eh
   gradient norm :     0.0002073 Eh/α   predicted    -0.6284487E-07 (-783.27%)
   displ. norm   :     0.0038047 α      lambda       -0.1443139E-06
   maximum displ.:     0.0036213 α      in ANC's #1, #2, #3, ...

........................................................................
.............................. CYCLE    9 ..............................
........................................................................
   1    -13.3138039 -0.133138E+02  0.636E-03    2.32       0.0  T
   2    -13.3138039 -0.317122E-09  0.376E-03    2.32      10.9  T
   3    -13.3138039 -0.185269E-09  0.127E-04    2.32     320.4  T
   4    -13.3138039 -0.141398E-10  0.975E-05    2.32     418.9  T
     SCC iter.                  ...        0 min,  0.001 sec
     gradient                   ...        0 min,  0.000 sec
 * total energy  :   -13.2565770 Eh     change        0.1385403E-06 Eh
   gradient norm :     0.0003060 Eh/α   predicted    -0.7393626E-07 (-153.37%)
   displ. norm   :     0.0026893 α      lambda       -0.3036060E-06
   maximum displ.:     0.0022113 α      in ANC's #1, #3, #8, ...

........................................................................
.............................. CYCLE   10 ..............................
........................................................................
   1    -13.3138779 -0.133139E+02  0.537E-03    2.32       0.0  T
   2    -13.3138779 -0.913557E-09  0.318E-03    2.32      12.9  T
   3    -13.3138779  0.199487E-09  0.458E-04    2.32      89.2  T
   4    -13.3138779 -0.469438E-09  0.102E-04    2.32     399.0  T
     SCC iter.                  ...        0 min,  0.001 sec
     gradient                   ...        0 min,  0.000 sec
 * total energy  :   -13.2565772 Eh     change       -0.1898401E-06 Eh
   gradient norm :     0.0001815 Eh/α   predicted    -0.1518320E-06 ( -20.02%)
   displ. norm   :     0.0007419 α      lambda       -0.2905604E-07
   maximum displ.:     0.0005874 α      in ANC's #3, #1, #8, ...

   *** GEOMETRY OPTIMIZATION CONVERGED AFTER 10 ITERATIONS ***

------------------------------------------------------------------------
 total energy gain   :        -0.6611555 Eh     -414.8813 kcal/mol
 total RMSD          :         0.1993786 a0        0.1055 Å
 total power (kW/mol):      -173.5863482 (step)********** (real)
------------------------------------------------------------------------

 ANCopt (total)                0 d,  0 h,  0 min,  0.023 sec
 optimizer setup                ...        0 min,  0.000 sec (  0.307%)
 model hessian                  ...        0 min,  0.001 sec (  2.480%)
 ANC generation                 ...        0 min,  0.000 sec (  0.491%)
 coordinate transformation      ...        0 min,  0.000 sec (  0.097%)
 single point calculation       ...        0 min,  0.021 sec ( 91.182%)
 optimization log               ...        0 min,  0.000 sec (  1.593%)
 hessian update                 ...        0 min,  0.000 sec (  0.171%)
 rational function              ...        0 min,  0.000 sec (  1.844%)

================
 final structure:
================
6
 xtb: 6.3.3 (71d3805)
C         4.87407044446540   -0.01456936105312    0.00207143834742
Cl        6.90068362832164    0.08121422508680   -0.00933874880901
H         4.63226151478887   -0.56164421793769   -0.89199573392369
H         4.64071308947156   -0.53427933496397    0.91450960168334
H         4.56219226889949    1.01483357609849   -0.01180505410050
F         1.94616905405304   -0.15395488723052    0.03992849680244

 Bond Distances (Angstroems)
 ---------------------------
C1-Cl2=2.0289        C1-H3=1.0757         C1-H4=1.0757         C1-H5=1.0757         Cl2-C1=2.0289        H3-C1=1.0757         
H4-C1=1.0757         H5-C1=1.0757         
 C  H  Rav=1.0757 sigma=0.0000  Rmin=1.0757  Rmax=1.0757     3
 Cl C  Rav=2.0289 sigma=0.0000  Rmin=2.0289  Rmax=2.0289     1

 selected bond angles (degree)
 --------------------
H3-C1-Cl2=104.12               H4-C1-Cl2=104.14               H4-C1-H3=114.24                H5-C1-Cl2=104.14               
H5-C1-H3=114.25                H5-C1-H4=114.23                

 selected dihedral angles (degree)
 ---------------------------------


 CMA Distance (Angstroems)
 ---------------------------
R(CMA):  4.3404
           -------------------------------------------------
          |                Final Singlepoint                |
           -------------------------------------------------

          ...................................................
          :                      SETUP                      :
          :.................................................:
          :  # basis functions                  21          :
          :  # atomic orbitals                  20          :
          :  # shells                           10          :
          :  # electrons                        22          :
          :  max. iterations                   250          :
          :  Hamiltonian                  GFN2-xTB          :
          :  restarted?                      false          :
          :  GBSA solvation                   true          :
          :  PC potential                    false          :
          :  electronic temp.          300.0000000     K    :
          :  accuracy                    1.0000000          :
          :  -> integral cutoff          0.2500000E+02      :
          :  -> integral neglect         0.1000000E-07      :
          :  -> SCF convergence          0.1000000E-05 Eh   :
          :  -> wf. convergence          0.1000000E-03 e    :
          :  Broyden damping             0.4000000          :
          ...................................................

 iter      E             dE          RMSdq      gap      omega  full diag
   1    -13.3138779 -0.133139E+02  0.628E-05    2.32       0.0  T
   2    -13.3138779 -0.332179E-11  0.535E-05    2.32     762.6  T
   3    -13.3138779 -0.815881E-11  0.263E-05    2.32    1553.6  T

   *** convergence criteria satisfied after 3 iterations ***

         #    Occupation            Energy/Eh            Energy/eV
      -------------------------------------------------------------
         1        2.0000           -1.0484320             -28.5293
       ...           ...                  ...                  ...
         5        2.0000           -0.5013369             -13.6421
         6        2.0000           -0.4746370             -12.9155
         7        2.0000           -0.4186892             -11.3931
         8        2.0000           -0.4186873             -11.3931
         9        2.0000           -0.3350024              -9.1159
        10        2.0000           -0.3341403              -9.0924
        11        2.0000           -0.3341394              -9.0924 (HOMO)
        12                         -0.2488537              -6.7717 (LUMO)
        13                          0.0317940               0.8652
        14                          0.0318030               0.8654
        15                          0.0334114               0.9092
        16                          0.0334183               0.9094
       ...                                ...                  ...
        20                          0.2384721               6.4892
      -------------------------------------------------------------
                  HL-Gap            0.0852857 Eh            2.3207 eV
             Fermi-level           -0.2914966 Eh           -7.9320 eV

 SCC (total)                   0 d,  0 h,  0 min,  0.002 sec
 SCC setup                      ...        0 min,  0.000 sec ( 11.798%)
 Dispersion                     ...        0 min,  0.000 sec (  0.677%)
 classical contributions        ...        0 min,  0.000 sec (  0.248%)
 integral evaluation            ...        0 min,  0.001 sec ( 30.761%)
 iterations                     ...        0 min,  0.000 sec ( 27.441%)
 molecular gradient             ...        0 min,  0.000 sec ( 22.323%)
 printout                       ...        0 min,  0.000 sec (  5.736%)

         :::::::::::::::::::::::::::::::::::::::::::::::::::::
         ::                     SUMMARY                     ::
         :::::::::::::::::::::::::::::::::::::::::::::::::::::
         :: total energy             -13.256577237829 Eh    ::
         :: total w/o Gsasa/hb       -13.254025005180 Eh    ::
         :: gradient norm              0.000182843343 Eh/a0 ::
         :: HOMO-LUMO gap              2.320740950992 eV    ::
         ::.................................................::
         :: SCC energy               -13.313877937415 Eh    ::
         :: -> isotropic ES            0.275487008513 Eh    ::
         :: -> anisotropic ES         -0.001020384612 Eh    ::
         :: -> anisotropic XC          0.005012368846 Eh    ::
         :: -> dispersion             -0.001852574852 Eh    ::
         :: -> Gsolv                  -0.134066657942 Eh    ::
         ::    -> Gborn               -0.131514425293 Eh    ::
         ::    -> Gsasa                0.000908410384 Eh    ::
         ::    -> Ghb                 -0.005318086160 Eh    ::
         ::    -> Gshift               0.001857443127 Eh    ::
         :: repulsion energy           0.056942089060 Eh    ::
         :: add. restraining           0.000359300666 Eh    ::
         :: total charge              -1.000000000000 e     ::
         :::::::::::::::::::::::::::::::::::::::::::::::::::::

           -------------------------------------------------
          |                Property Printout                |
           -------------------------------------------------

    * Orbital Energies and Occupations

         #    Occupation            Energy/Eh            Energy/eV
      -------------------------------------------------------------
         1        2.0000           -1.0484320             -28.5293
         2        2.0000           -0.6008695             -16.3505
         3        2.0000           -0.5913694             -16.0920
         4        2.0000           -0.5013768             -13.6432
         5        2.0000           -0.5013369             -13.6421
         6        2.0000           -0.4746370             -12.9155
         7        2.0000           -0.4186892             -11.3931
         8        2.0000           -0.4186873             -11.3931
         9        2.0000           -0.3350024              -9.1159
        10        2.0000           -0.3341403              -9.0924
        11        2.0000           -0.3341394              -9.0924 (HOMO)
        12                         -0.2488537              -6.7717 (LUMO)
        13                          0.0317940               0.8652
        14                          0.0318030               0.8654
        15                          0.0334114               0.9092
        16                          0.0334183               0.9094
        17                          0.0605872               1.6487
        18                          0.1441980               3.9238
        19                          0.2384060               6.4874
        20                          0.2384721               6.4892
      -------------------------------------------------------------
                  HL-Gap            0.0852857 Eh            2.3207 eV
             Fermi-level           -0.2914966 Eh           -7.9320 eV

     #   Z          covCN         q      C6AA      α(0)
     1   6 C        3.590    -0.023    21.655     6.743
     2  17 Cl       0.812    -0.277   107.876    15.889
     3   1 H        0.926     0.098     1.807     2.102
     4   1 H        0.926     0.098     1.808     2.102
     5   1 H        0.926     0.098     1.807     2.102
     6   9 F        0.000    -0.993    24.363     5.749

 Mol. C6AA /au·bohr⁶  :        569.288852
 Mol. C8AA /au·bohr⁸  :      15853.670973
 Mol. α(0) /au        :         34.687568


Wiberg/Mayer (AO) data.
largest (>0.10) Wiberg bond orders for each atom

 ---------------------------------------------------------------------------
     #   Z sym  total        # sym  WBO       # sym  WBO       # sym  WBO
 ---------------------------------------------------------------------------
     1   6 C    3.888 --     4 H    0.987     3 H    0.987     5 H    0.987
                             2 Cl   0.917
     2  17 Cl   0.931 --     1 C    0.917
     3   1 H    0.990 --     1 C    0.987
     4   1 H    0.990 --     1 C    0.987
     5   1 H    0.990 --     1 C    0.987
     6   9 F    0.015 -- ---------------------------------------------------------------------------

Topologies differ in total number of bonds
Writing topology from bond orders to xtbtopo.mol

molecular dipole:
                 x           y           z       tot (Debye)
 q only:       -4.924       0.232      -0.068
   full:       -5.054       0.226      -0.066      12.860
molecular quadrupole (traceless):
                xx          xy          yy          xz          yz          zz
 q only:      -40.772       0.534      20.322      -0.291       0.034      20.450
  q+dip:      -44.514       0.358      22.191      -0.243       0.035      22.323
   full:      -43.528       0.428      21.700      -0.251       0.035      21.828

           -------------------------------------------------
          |                Geometry Summary                 |
           -------------------------------------------------

      molecular mass/u    :       69.4858989
   center of mass at/Å    :        5.0961392      -0.0043511       0.0066656
  moments of inertia/u·Å² :        0.3291231E+01   0.3076204E+03   0.3076213E+03
rotational constants/cm⁻¹ :        0.5121983E+01   0.5480011E-01   0.5479994E-01

 * 3 selected distances

     #   Z          #   Z                                           value/Å
     1   6 C        3   1 H                                       1.0756945
     1   6 C        4   1 H                                       1.0756847 (min)
     1   6 C        5   1 H                                       1.0757002 (max)

 * 1 distinct bonds (by element types)

   Z      Z             #   av. dist./Å        max./Å        min./Å
   1 H    6 C           3     1.0756931     1.0757002     1.0756847


optimized geometry written to: xtbopt.xyz


           -------------------------------------------------
          | TOTAL ENERGY              -13.256577237829 Eh   |
          | GRADIENT NORM               0.000182843343 Eh/α |
          | HOMO-LUMO GAP               2.320740950992 eV   |
           -------------------------------------------------

------------------------------------------------------------------------
 * finished run on 2024/05/31 at 17:48:54.593     
------------------------------------------------------------------------
 total:
 * wall-time:     0 d,  0 h,  0 min,  0.075 sec
 *  cpu-time:     0 d,  0 h,  0 min,  0.394 sec
 * ratio c/w:     5.244 speedup
 SCF:
 * wall-time:     0 d,  0 h,  0 min,  0.005 sec
 *  cpu-time:     0 d,  0 h,  0 min,  0.033 sec
 * ratio c/w:     6.974 speedup
 ANC optimizer:
 * wall-time:     0 d,  0 h,  0 min,  0.026 sec
 *  cpu-time:     0 d,  0 h,  0 min,  0.178 sec
 * ratio c/w:     6.978 speedup

