      -----------------------------------------------------------      
     |                   =====================                   |     
     |                           x T B                           |     
     |                   =====================                   |     
     |                         S. Grimme                         |     
     |          Mulliken Center for Theoretical Chemistry        |     
     |                    University of Bonn                     |     
      -----------------------------------------------------------      

   * xtb version 6.3.3 (71d3805) compiled by 'conda@b85dec0bf610' on 2021-01-07

   xtb is free software: you can redistribute it and/or modify it under
   the terms of the GNU Lesser General Public License as published by
   the Free Software Foundation, either version 3 of the License, or
   (at your option) any later version.
   
   xtb is distributed in the hope that it will be useful,
   but WITHOUT ANY WARRANTY; without even the implied warranty of
   MERCHANTABILITY or FITNESS FOR A PARTICULAR PURPOSE.  See the
   GNU Lesser General Public License for more details.
   
   Cite this work as:
   * C. Bannwarth, E. Caldeweyher, S. Ehlert, A. Hansen, P. Pracht,
     J. Seibert, S. Spicher, S. Grimme, WIREs Comput. Mol. Sci., 2020,
     e01493. DOI: 10.1002/wcms.1493
   
   for GFN2-xTB:
   * S. Grimme, C. Bannwarth, P. Shushkov, J. Chem. Theory Comput., 2017,
     13, 1989-2009. DOI: 10.1021/acs.jctc.7b00118
   for GFN1-xTB:
   * C. Bannwarth, S. Ehlert and S. Grimme., J. Chem. Theory Comput., 2019,
     15, 1652-1671. DOI: 10.1021/acs.jctc.8b01176
   for GFN0-xTB:
   * P. Pracht, E. Caldeweyher, S. Ehlert, S. Grimme, ChemRxiv, 2019, preprint.
     DOI: 10.26434/chemrxiv.8326202.v1
   for GFN-FF:
   * S. Spicher and S. Grimme, Angew. Chem. Int. Ed., 2020, 59, 15665-15673.
     DOI: 10.1002/anie.202004239
   
   for DFT-D4:
   * E. Caldeweyher, C. Bannwarth and S. Grimme, J. Chem. Phys., 2017,
     147, 034112. DOI: 10.1063/1.4993215
   * E. Caldeweyher, S. Ehlert, A. Hansen, H. Neugebauer, S. Spicher,
     C. Bannwarth and S. Grimme, J. Chem. Phys., 2019, 150, 154122.
     DOI: 10.1063/1.5090222
   * E. Caldeweyher, J.-M. Mewes, S. Ehlert and S. Grimme, Phys. Chem. Chem. Phys.
     2020, 22, 8499-8512. DOI: 10.1039/D0CP00502A
   
   for sTDA-xTB:
   * S. Grimme and C. Bannwarth, J. Chem. Phys., 2016, 145, 054103.
     DOI: 10.1063/1.4959605
   
   in the mass-spec context:
   * V. Asgeirsson, C. Bauer and S. Grimme, Chem. Sci., 2017, 8, 4879.
     DOI: 10.1039/c7sc00601b
   * J. Koopman and S. Grimme, ACS Omega 2019, 4, 12, 15120-15133.
     DOI: 10.1021/acsomega.9b02011
   
   for metadynamics refer to:
   * S. Grimme, J. Chem. Theory Comput., 2019, 155, 2847-2862
     DOI: 10.1021/acs.jctc.9b00143
   
   with help from (in alphabetical order)
   C. Bannwarth, F. Bohle, G. Brandenburg, E. Caldeweyher, M. Checinski,
   S. Dohm, S. Ehlert, S. Ehrlich, F. März, H. Neugebauer, J. Pisarek,
   P. Pracht, P. Shushkov, and S. Spicher.
   
 * started run on 2024/05/31 at 17:48:54.332     

           -------------------------------------------------
          |                Calculation Setup                |
           -------------------------------------------------

          program call               : /home/thijs/miniconda3/envs/ts-tools/bin/xtb path_opt0_xtb.xyz --chrg -1 --uhf 0 --opt --gbsa Water --input xcontrol_path_opt0_xtb
          hostname                   : dale
          coordinate file            : path_opt0_xtb.xyz
          omp threads                :                     4
          number of atoms            :                     6
          number of electrons        :                    22
          charge                     :                    -1
          spin                       :                   0.0
          first test random number   :      0.48820801105780

   ID    Z sym.   atoms
    1    6 C      1
    2   17 Cl     2
    3    1 H      3-5
    4    9 F      6
constraining bond 1 6 to    3.2313000 Å, actual value:    3.4312451 Å
constraining bond 1 2 to    1.9843000 Å, actual value:    1.7832406 Å

molecular fragmentation (1/2 indicates fragments):
111112
# atoms in fragment 1/2:     5     1
 fragment masses (1/2) :       50.49       19.00
CMA distance (Bohr)    :   8.812
constraining FC (au)   :  2.0000

           -------------------------------------------------
          |                 G F N 2 - x T B                 |
           -------------------------------------------------

        Reference                      10.1021/acs.jctc.8b01176
      * Hamiltonian:
        H0-scaling (s, p, d)           1.850000    2.230000    2.230000
        zeta-weighting                 0.500000
      * Dispersion:
        s8                             2.700000
        a1                             0.520000
        a2                             5.000000
        s9                             5.000000
      * Repulsion:
        kExp                           1.500000    1.000000
        rExp                           1.000000
      * Coulomb:
        alpha                          2.000000
        third order                    shell-resolved
        anisotropic                    true
        a3                             3.000000
        a5                             4.000000
        cn-shift                       1.200000
        cn-exp                         4.000000
        max-rad                        5.000000

      * Solvation model:               GBSA
        Solvent                        Water
        Parameter file                 internal GFN2-xTB/GBSA
        Dielectric constant                8.0200E+01
        Reference state                gsolv [1 M gas/solution]
        Free energy shift                  1.8574E-03 Eh       1.1656E+00 kcal/mol
        Temperature                        2.9815E+02 K
        Density                            1.0000E+00 kg/L
        Solvent mass                       1.8000E+01 g/mol
        Interaction kernel             Still
        Born radius scaling (c1)           1.5524E+00
        Born radii integrator          GBOBC
        Born offset                        2.4628E-02 a0       4.6540E-02 AA
        H-bond correction              true
        Ion screening                  false
        Surface tension                    1.0000E-05 Eh       1.5569E+01 dyn/cm
        Grid points                               230 per atom

          ...................................................
          :                      SETUP                      :
          :.................................................:
          :  # basis functions                  21          :
          :  # atomic orbitals                  20          :
          :  # shells                           10          :
          :  # electrons                        22          :
          :  max. iterations                   250          :
          :  Hamiltonian                  GFN2-xTB          :
          :  restarted?                      false          :
          :  GBSA solvation                   true          :
          :  PC potential                    false          :
          :  electronic temp.          300.0000000     K    :
          :  accuracy                    1.0000000          :
          :  -> integral cutoff          0.2500000E+02      :
          :  -> integral neglect         0.1000000E-07      :
          :  -> SCF convergence          0.1000000E-05 Eh   :
          :  -> wf. convergence          0.1000000E-03 e    :
          :  Broyden damping             0.4000000          :
          ...................................................

 iter      E             dE          RMSdq      gap      omega  full diag
   1    -13.2747343 -0.132747E+02  0.557E+00    7.78       0.0  T
   2    -13.3291363 -0.544020E-01  0.322E+00    5.68       1.0  T
   3    -13.3298568 -0.720510E-03  0.171E+00    5.25       1.0  T
   4    -13.3302421 -0.385254E-03  0.332E-01    4.67       1.0  T
   5    -13.3304286 -0.186499E-03  0.195E-01    4.66       1.0  T
   6    -13.3305367 -0.108175E-03  0.143E-01    4.57       1.0  T
   7    -13.3305868 -0.500332E-04  0.873E-03    4.54       4.7  T
   8    -13.3305868 -0.206038E-07  0.904E-03    4.54       4.5  T
   9    -13.3305869 -0.152202E-06  0.506E-04    4.55      80.7  T
  10    -13.3305869 -0.456939E-09  0.226E-04    4.55     180.8  T

   *** convergence criteria satisfied after 10 iterations ***

         #    Occupation            Energy/Eh            Energy/eV
      -------------------------------------------------------------
         1        2.0000           -1.0580230             -28.7903
       ...           ...                  ...                  ...
         5        2.0000           -0.5136005             -13.9758
         6        2.0000           -0.5008842             -13.6298
         7        2.0000           -0.4203567             -11.4385
         8        2.0000           -0.4203565             -11.4385
         9        2.0000           -0.3377845              -9.1916
        10        2.0000           -0.3373641              -9.1801
        11        2.0000           -0.3373637              -9.1801 (HOMO)
        12                         -0.1703078              -4.6343 (LUMO)
        13                          0.0180394               0.4909
        14                          0.0180533               0.4913
        15                          0.0221933               0.6039
        16                          0.0222047               0.6042
       ...                                ...                  ...
        20                          0.2121295               5.7723
      -------------------------------------------------------------
                  HL-Gap            0.1670559 Eh            4.5458 eV
             Fermi-level           -0.2538358 Eh           -6.9072 eV

 SCC (total)                   0 d,  0 h,  0 min,  0.006 sec
 SCC setup                      ...        0 min,  0.000 sec (  6.151%)
 Dispersion                     ...        0 min,  0.000 sec (  0.524%)
 classical contributions        ...        0 min,  0.000 sec (  0.558%)
 integral evaluation            ...        0 min,  0.001 sec ( 23.108%)
 iterations                     ...        0 min,  0.003 sec ( 51.182%)
 molecular gradient             ...        0 min,  0.001 sec ( 15.997%)
 printout                       ...        0 min,  0.000 sec (  2.249%)

         :::::::::::::::::::::::::::::::::::::::::::::::::::::
         ::                     SUMMARY                     ::
         :::::::::::::::::::::::::::::::::::::::::::::::::::::
         :: total energy             -12.699631800953 Eh    ::
         :: total w/o Gsasa/hb       -12.697091827145 Eh    ::
         :: gradient norm              3.702342687963 Eh/a0 ::
         :: HOMO-LUMO gap              4.545821833875 eV    ::
         ::.................................................::
         :: SCC energy               -13.330586935202 Eh    ::
         :: -> isotropic ES            0.281115295073 Eh    ::
         :: -> anisotropic ES         -0.002071731136 Eh    ::
         :: -> anisotropic XC          0.000148586134 Eh    ::
         :: -> dispersion             -0.001804710845 Eh    ::
         :: -> Gsolv                  -0.140464500640 Eh    ::
         ::    -> Gborn               -0.137924526832 Eh    ::
         ::    -> Gsasa                0.001091579055 Eh    ::
         ::    -> Ghb                 -0.005488995991 Eh    ::
         ::    -> Gshift               0.001857443127 Eh    ::
         :: repulsion energy           0.056707781385 Eh    ::
         :: add. restraining           0.574248263169 Eh    ::
         :: total charge              -1.000000000000 e     ::
         :::::::::::::::::::::::::::::::::::::::::::::::::::::

      ----------------------------------------------------------- 
     |                   =====================                   |
     |                        A N C O P T                        |
     |                   =====================                   |
     |               Approximate Normal Coordinate               |
     |                Rational Function Optimizer                |
      ----------------------------------------------------------- 

          ...................................................
          :                      SETUP                      :
          :.................................................:
          :   optimization level            normal          :
          :   max. optcycles                   200          :
          :   ANC micro-cycles                  20          :
          :   degrees of freedom                12          :
          :.................................................:
          :   RF solver                   davidson          :
          :   write xtbopt.log                true          :
          :   linear?                        false          :
          :   energy convergence         0.5000000E-05 Eh   :
          :   grad. convergence          0.1000000E-02 Eh/α :
          :   maximium RF displ.         1.0000000          :
          :   Hlow (freq-cutoff)         0.1000000E-01      :
          :   Hmax (freq-cutoff)         5.0000000          :
          :   S6 in model hess.         20.0000000          :
          ...................................................

generating ANC from model Hessian ...
Using Lindh-Hessian (1995)
 Shifting diagonal of input Hessian by   0.41091470696962340     
 Lowest  eigenvalues of input Hessian
    0.010000    0.010015    0.000000    0.000000    0.000000    0.000000
    0.000000    0.000000    0.463956    0.463958    0.531983    0.538479
    0.538486    0.884208    1.427675    1.427830    4.606940   13.280503
 Highest eigenvalues
    0.538486    0.884208    1.427675    1.427830    4.606940   13.280503


........................................................................
.............................. CYCLE    1 ..............................
........................................................................
   1    -13.3305869 -0.133306E+02  0.779E-05    4.55       0.0  T
   2    -13.3305869 -0.713563E-11  0.454E-05    4.55     899.9  T
   3    -13.3305869 -0.145484E-11  0.350E-05    4.55    1166.8  T
     SCC iter.                  ...        0 min,  0.001 sec
     gradient                   ...        0 min,  0.001 sec
 * total energy  :   -12.6996318 Eh     change       -0.8872370E-10 Eh
   gradient norm :     3.7023428 Eh/α   predicted     0.0000000E+00 (-100.00%)
   displ. norm   :     0.5319781 α      lambda       -0.1968561E+01
   maximum displ.:     0.5306993 α      in ANC's #12, #8, #11, ...

........................................................................
.............................. CYCLE    2 ..............................
........................................................................
   1    -13.3147718 -0.133148E+02  0.159E+00    1.28       0.0  T
   2    -13.3156526 -0.880729E-03  0.847E-01    1.25       1.0  T
   3    -13.3159388 -0.286271E-03  0.634E-01    1.45       1.0  T
   4    -13.3164028 -0.463930E-03  0.304E-01    1.49       1.0  T
   5    -13.3166983 -0.295519E-03  0.131E-01    1.51       1.0  T
   6    -13.3167414 -0.431104E-04  0.410E-02    1.53       1.0  T
   7    -13.3167428 -0.137321E-05  0.539E-03    1.54       7.6  T
   8    -13.3167428 -0.550579E-08  0.107E-03    1.54      38.0  T
   9    -13.3167428 -0.967656E-09  0.115E-04    1.54     355.1  T
  10    -13.3167428 -0.651212E-11  0.132E-05    1.54    3089.7  T
     SCC iter.                  ...        0 min,  0.002 sec
     gradient                   ...        0 min,  0.001 sec
 * total energy  :   -12.9448692 Eh     change       -0.2452374E+00 Eh
   gradient norm :     2.7565445 Eh/α   predicted    -0.1262833E+01 ( 414.94%)
   displ. norm   :     0.2167200 α      lambda       -0.5963324E+00
   maximum displ.:     0.2162175 α      in ANC's #12, #8, #11, ...

........................................................................
.............................. CYCLE    3 ..............................
........................................................................
   1    -13.3248403 -0.133248E+02  0.678E-01    2.74       0.0  T
   2    -13.3250605 -0.220172E-03  0.330E-01    2.77       1.0  T
   3    -13.3250964 -0.358483E-04  0.202E-01    2.69       1.0  T
   4    -13.3251306 -0.342613E-04  0.951E-02    2.66       1.0  T
   5    -13.3251560 -0.253446E-04  0.475E-02    2.65       1.0  T
   6    -13.3251625 -0.657038E-05  0.800E-03    2.64       5.1  T
   7    -13.3251628 -0.238948E-06  0.114E-03    2.63      35.8  T
   8    -13.3251628 -0.405782E-09  0.539E-05    2.63     757.4  T
   9    -13.3251628 -0.335731E-12  0.283E-05    2.63    1442.6  T
     SCC iter.                  ...        0 min,  0.002 sec
     gradient                   ...        0 min,  0.001 sec
 * total energy  :   -13.2596501 Eh     change       -0.3147808E+00 Eh
   gradient norm :     0.1502617 Eh/α   predicted    -0.3121702E+00 (  -0.83%)
   displ. norm   :     0.0334200 α      lambda       -0.2616570E-02
   maximum displ.:     0.0284266 α      in ANC's #8, #12, #5, ...

........................................................................
.............................. CYCLE    4 ..............................
........................................................................
   1    -13.3224706 -0.133225E+02  0.806E-02    2.72       0.0  T
   2    -13.3224711 -0.512012E-06  0.482E-02    2.72       1.0  T
   3    -13.3224715 -0.434117E-06  0.108E-02    2.72       3.8  T
   4    -13.3224717 -0.164168E-06  0.576E-03    2.72       7.1  T
   5    -13.3224717 -0.304031E-07  0.474E-03    2.72       8.6  T
   6    -13.3224718 -0.882347E-07  0.577E-04    2.71      70.8  T
   7    -13.3224718 -0.712987E-09  0.243E-04    2.71     167.7  T
     SCC iter.                  ...        0 min,  0.001 sec
     gradient                   ...        0 min,  0.001 sec
 * total energy  :   -13.2611818 Eh     change       -0.1531692E-02 Eh
   gradient norm :     0.0159171 Eh/α   predicted    -0.1309745E-02 ( -14.49%)
   displ. norm   :     0.0483314 α      lambda       -0.4466656E-03
   maximum displ.:     0.0378435 α      in ANC's #1, #8, #5, ...

........................................................................
.............................. CYCLE    5 ..............................
........................................................................
   1    -13.3201195 -0.133201E+02  0.821E-02    2.72       0.0  T
   2    -13.3201197 -0.175280E-06  0.488E-02    2.72       1.0  T
   3    -13.3201197 -0.757398E-07  0.483E-03    2.72       8.5  T
   4    -13.3201198 -0.154444E-07  0.289E-03    2.72      14.1  T
   5    -13.3201198 -0.500690E-08  0.107E-03    2.72      38.3  T
   6    -13.3201198 -0.214439E-08  0.345E-04    2.72     118.3  T
   7    -13.3201198 -0.237170E-09  0.991E-05    2.72     411.9  T
     SCC iter.                  ...        0 min,  0.001 sec
     gradient                   ...        0 min,  0.001 sec
 * total energy  :   -13.2614656 Eh     change       -0.2838496E-03 Eh
   gradient norm :     0.0230970 Eh/α   predicted    -0.2238546E-03 ( -21.14%)
   displ. norm   :     0.2181387 α      lambda       -0.1329580E-02
   maximum displ.:     0.1867356 α      in ANC's #1, #8, #5, ...

........................................................................
.............................. CYCLE    6 ..............................
........................................................................
   1    -13.3106346 -0.133106E+02  0.349E-01    2.69       0.0  T
   2    -13.3106366 -0.199206E-05  0.208E-01    2.70       1.0  T
   3    -13.3106380 -0.144135E-05  0.162E-02    2.71       2.5  T
   4    -13.3106383 -0.225952E-06  0.768E-03    2.71       5.3  T
   5    -13.3106383 -0.595608E-07  0.595E-03    2.71       6.9  T
   6    -13.3106384 -0.747179E-07  0.168E-03    2.71      24.2  T
   7    -13.3106384 -0.522153E-08  0.676E-04    2.71      60.4  T
   8    -13.3106384 -0.829937E-09  0.362E-04    2.71     112.7  T
     SCC iter.                  ...        0 min,  0.002 sec
     gradient                   ...        0 min,  0.001 sec
 * total energy  :   -13.2603790 Eh     change        0.1086551E-02 Eh
   gradient norm :     0.0534533 Eh/α   predicted    -0.6964269E-03 (-164.10%)
   displ. norm   :     0.1614143 α      lambda       -0.2611370E-02
   maximum displ.:     0.1480720 α      in ANC's #1, #8, #2, ...

........................................................................
.............................. CYCLE    7 ..............................
........................................................................
   1    -13.3172062 -0.133172E+02  0.235E-01    2.73       0.0  T
   2    -13.3172074 -0.116703E-05  0.140E-01    2.73       1.0  T
   3    -13.3172080 -0.644142E-06  0.143E-02    2.72       2.8  T
   4    -13.3172082 -0.154508E-06  0.977E-03    2.73       4.2  T
   5    -13.3172083 -0.117385E-06  0.441E-03    2.73       9.2  T
   6    -13.3172083 -0.352247E-07  0.912E-04    2.73      44.8  T
   7    -13.3172083 -0.125406E-08  0.248E-04    2.73     164.3  T
     SCC iter.                  ...        0 min,  0.001 sec
     gradient                   ...        0 min,  0.001 sec
 * total energy  :   -13.2617662 Eh     change       -0.1387171E-02 Eh
   gradient norm :     0.0164580 Eh/α   predicted    -0.1339701E-02 (  -3.42%)
   displ. norm   :     0.0238659 α      lambda       -0.7953956E-04
   maximum displ.:     0.0212463 α      in ANC's #2, #5, #1, ...

........................................................................
.............................. CYCLE    8 ..............................
........................................................................
   1    -13.3178693 -0.133179E+02  0.386E-02    2.71       0.0  T
   2    -13.3178695 -0.209243E-06  0.226E-02    2.71       1.8  T
   3    -13.3178695 -0.157711E-07  0.702E-03    2.71       5.8  T
   4    -13.3178696 -0.533510E-07  0.293E-03    2.71      14.0  T
   5    -13.3178696 -0.136839E-07  0.162E-03    2.71      25.2  T
   6    -13.3178696 -0.865156E-08  0.303E-04    2.71     134.7  T
   7    -13.3178696 -0.127576E-09  0.199E-04    2.71     205.6  T
     SCC iter.                  ...        0 min,  0.001 sec
     gradient                   ...        0 min,  0.001 sec
 * total energy  :   -13.2618106 Eh     change       -0.4440772E-04 Eh
   gradient norm :     0.0051969 Eh/α   predicted    -0.3979350E-04 ( -10.39%)
   displ. norm   :     0.0871247 α      lambda       -0.2045217E-03
   maximum displ.:     0.0693743 α      in ANC's #2, #1, #5, ...

........................................................................
.............................. CYCLE    9 ..............................
........................................................................
   1    -13.3193638 -0.133194E+02  0.148E-01    2.67       0.0  T
   2    -13.3193663 -0.245147E-05  0.860E-02    2.68       1.0  T
   3    -13.3193664 -0.976435E-07  0.242E-02    2.68       1.7  T
   4    -13.3193670 -0.656202E-06  0.939E-03    2.68       4.3  T
   5    -13.3193672 -0.142700E-06  0.521E-03    2.68       7.8  T
   6    -13.3193673 -0.850236E-07  0.117E-03    2.68      34.8  T
   7    -13.3193673 -0.278128E-08  0.754E-04    2.68      54.2  T
   8    -13.3193673 -0.113185E-08  0.349E-04    2.68     117.1  T
     SCC iter.                  ...        0 min,  0.002 sec
     gradient                   ...        0 min,  0.001 sec
 * total energy  :   -13.2616313 Eh     change        0.1793086E-03 Eh
   gradient norm :     0.0374033 Eh/α   predicted    -0.1030380E-03 (-157.46%)
   displ. norm   :     0.0665897 α      lambda       -0.4874702E-03
   maximum displ.:     0.0535740 α      in ANC's #2, #1, #8, ...

........................................................................
.............................. CYCLE   10 ..............................
........................................................................
   1    -13.3184915 -0.133185E+02  0.928E-02    2.71       0.0  T
   2    -13.3184919 -0.403004E-06  0.548E-02    2.71       1.0  T
   3    -13.3184920 -0.109213E-06  0.946E-03    2.71       4.3  T
   4    -13.3184922 -0.111007E-06  0.560E-03    2.71       7.3  T
   5    -13.3184922 -0.541984E-07  0.286E-03    2.71      14.3  T
   6    -13.3184922 -0.218008E-07  0.681E-04    2.71      60.0  T
   7    -13.3184922 -0.848418E-09  0.474E-04    2.71      86.2  T
     SCC iter.                  ...        0 min,  0.001 sec
     gradient                   ...        0 min,  0.001 sec
 * total energy  :   -13.2618707 Eh     change       -0.2394105E-03 Eh
   gradient norm :     0.0048085 Eh/α   predicted    -0.2448171E-03 (   2.26%)
   displ. norm   :     0.0057634 α      lambda       -0.6169750E-05
   maximum displ.:     0.0048855 α      in ANC's #5, #1, #2, ...

........................................................................
.............................. CYCLE   11 ..............................
........................................................................
   1    -13.3186397 -0.133186E+02  0.157E-02    2.71       0.0  T
   2    -13.3186398 -0.424786E-07  0.894E-03    2.71       4.6  T
   3    -13.3186398  0.186872E-08  0.319E-03    2.71      12.8  T
   4    -13.3186398 -0.824786E-08  0.537E-04    2.71      76.0  T
   5    -13.3186398 -0.248027E-09  0.246E-04    2.71     166.0  T
     SCC iter.                  ...        0 min,  0.001 sec
     gradient                   ...        0 min,  0.001 sec
 * total energy  :   -13.2618750 Eh     change       -0.4280611E-05 Eh
   gradient norm :     0.0021047 Eh/α   predicted    -0.3085323E-05 ( -27.92%)
   displ. norm   :     0.0034397 α      lambda       -0.1607081E-05
   maximum displ.:     0.0032164 α      in ANC's #5, #1, #2, ...

........................................................................
.............................. CYCLE   12 ..............................
........................................................................
   1    -13.3187481 -0.133187E+02  0.102E-02    2.71       0.0  T
   2    -13.3187481 -0.195577E-07  0.578E-03    2.71       7.1  T
   3    -13.3187481  0.547985E-09  0.216E-03    2.71      18.9  T
   4    -13.3187481 -0.359454E-08  0.393E-04    2.71     103.8  T
   5    -13.3187481 -0.163483E-09  0.200E-04    2.71     204.3  T
     SCC iter.                  ...        0 min,  0.001 sec
     gradient                   ...        0 min,  0.001 sec
 * total energy  :   -13.2618758 Eh     change       -0.8136244E-06 Eh
   gradient norm :     0.0000939 Eh/α   predicted    -0.8030608E-06 (  -1.30%)
   displ. norm   :     0.0002041 α      lambda       -0.3227411E-08
   maximum displ.:     0.0001685 α      in ANC's #1, #8, #2, ...

   *** GEOMETRY OPTIMIZATION CONVERGED AFTER 12 ITERATIONS ***

------------------------------------------------------------------------
 total energy gain   :        -0.5622440 Eh     -352.8135 kcal/mol
 total RMSD          :         0.1403512 a0        0.0743 Å
 total power (kW/mol):      -123.0142902 (step)********** (real)
------------------------------------------------------------------------

 ANCopt (total)                0 d,  0 h,  0 min,  0.041 sec
 optimizer setup                ...        0 min,  0.000 sec (  0.235%)
 model hessian                  ...        0 min,  0.001 sec (  3.571%)
 ANC generation                 ...        0 min,  0.000 sec (  0.348%)
 coordinate transformation      ...        0 min,  0.000 sec (  0.122%)
 single point calculation       ...        0 min,  0.037 sec ( 90.353%)
 optimization log               ...        0 min,  0.001 sec (  1.690%)
 hessian update                 ...        0 min,  0.000 sec (  0.156%)
 rational function              ...        0 min,  0.001 sec (  1.724%)

================
 final structure:
================
6
 xtb: 6.3.3 (71d3805)
C         4.94050507472666   -0.01147112968374    0.00139411937065
Cl        6.91609391883235    0.08212436967988   -0.00978058959622
H         4.68237866270832   -0.55797388715957   -0.89029843118449
H         4.69089444472085   -0.53064480479360    0.91162811070100
H         4.61314189072644    1.01470611139092   -0.01232318154257
F         1.71307600828538   -0.16515065943388    0.04274997225163

 Bond Distances (Angstroems)
 ---------------------------
C1-Cl2=1.9778        C1-H3=1.0772         C1-H4=1.0772         C1-H5=1.0772         Cl2-C1=1.9778        H3-C1=1.0772         
H4-C1=1.0772         H5-C1=1.0772         
 C  H  Rav=1.0772 sigma=0.0000  Rmin=1.0772  Rmax=1.0772     3
 Cl C  Rav=1.9778 sigma=0.0000  Rmin=1.9778  Rmax=1.9778     1

 selected bond angles (degree)
 --------------------
H3-C1-Cl2=104.99               H4-C1-Cl2=105.01               H4-C1-H3=113.54                H5-C1-Cl2=104.98               
H5-C1-H3=113.57                H5-C1-H4=113.54                

 selected dihedral angles (degree)
 ---------------------------------


 CMA Distance (Angstroems)
 ---------------------------
R(CMA):  4.6035
           -------------------------------------------------
          |                Final Singlepoint                |
           -------------------------------------------------

          ...................................................
          :                      SETUP                      :
          :.................................................:
          :  # basis functions                  21          :
          :  # atomic orbitals                  20          :
          :  # shells                           10          :
          :  # electrons                        22          :
          :  max. iterations                   250          :
          :  Hamiltonian                  GFN2-xTB          :
          :  restarted?                      false          :
          :  GBSA solvation                   true          :
          :  PC potential                    false          :
          :  electronic temp.          300.0000000     K    :
          :  accuracy                    1.0000000          :
          :  -> integral cutoff          0.2500000E+02      :
          :  -> integral neglect         0.1000000E-07      :
          :  -> SCF convergence          0.1000000E-05 Eh   :
          :  -> wf. convergence          0.1000000E-03 e    :
          :  Broyden damping             0.4000000          :
          ...................................................

 iter      E             dE          RMSdq      gap      omega  full diag
   1    -13.3187481 -0.133187E+02  0.549E-05    2.71       0.0  T
   2    -13.3187481 -0.124878E-11  0.408E-05    2.71    1000.4  T
   3    -13.3187481 -0.249045E-11  0.212E-05    2.71    1929.8  T

   *** convergence criteria satisfied after 3 iterations ***

         #    Occupation            Energy/Eh            Energy/eV
      -------------------------------------------------------------
         1        2.0000           -1.0509291             -28.5972
       ...           ...                  ...                  ...
         5        2.0000           -0.5039645             -13.7136
         6        2.0000           -0.4815730             -13.1043
         7        2.0000           -0.4200287             -11.4296
         8        2.0000           -0.4200276             -11.4295
         9        2.0000           -0.3350268              -9.1165
        10        2.0000           -0.3344243              -9.1001
        11        2.0000           -0.3344237              -9.1001 (HOMO)
        12                         -0.2348020              -6.3893 (LUMO)
        13                          0.0277929               0.7563
        14                          0.0278029               0.7566
        15                          0.0297863               0.8105
        16                          0.0297934               0.8107
       ...                                ...                  ...
        20                          0.2321000               6.3158
      -------------------------------------------------------------
                  HL-Gap            0.0996218 Eh            2.7108 eV
             Fermi-level           -0.2846129 Eh           -7.7447 eV

 SCC (total)                   0 d,  0 h,  0 min,  0.003 sec
 SCC setup                      ...        0 min,  0.000 sec ( 12.065%)
 Dispersion                     ...        0 min,  0.000 sec (  0.635%)
 classical contributions        ...        0 min,  0.000 sec (  0.220%)
 integral evaluation            ...        0 min,  0.001 sec ( 31.335%)
 iterations                     ...        0 min,  0.001 sec ( 27.303%)
 molecular gradient             ...        0 min,  0.001 sec ( 22.092%)
 printout                       ...        0 min,  0.000 sec (  5.945%)

         :::::::::::::::::::::::::::::::::::::::::::::::::::::
         ::                     SUMMARY                     ::
         :::::::::::::::::::::::::::::::::::::::::::::::::::::
         :: total energy             -13.261875824999 Eh    ::
         :: total w/o Gsasa/hb       -13.259119658956 Eh    ::
         :: gradient norm              0.000091777574 Eh/a0 ::
         :: HOMO-LUMO gap              2.710846065493 eV    ::
         ::.................................................::
         :: SCC energy               -13.318748130581 Eh    ::
         :: -> isotropic ES            0.279836393266 Eh    ::
         :: -> anisotropic ES         -0.000845691378 Eh    ::
         :: -> anisotropic XC          0.004784408385 Eh    ::
         :: -> dispersion             -0.001784789491 Eh    ::
         :: -> Gsolv                  -0.137922227671 Eh    ::
         ::    -> Gborn               -0.135166061629 Eh    ::
         ::    -> Gsasa                0.001014105003 Eh    ::
         ::    -> Ghb                 -0.005627714173 Eh    ::
         ::    -> Gshift               0.001857443127 Eh    ::
         :: repulsion energy           0.056574868722 Eh    ::
         :: add. restraining           0.000298415845 Eh    ::
         :: total charge              -1.000000000000 e     ::
         :::::::::::::::::::::::::::::::::::::::::::::::::::::

           -------------------------------------------------
          |                Property Printout                |
           -------------------------------------------------

    * Orbital Energies and Occupations

         #    Occupation            Energy/Eh            Energy/eV
      -------------------------------------------------------------
         1        2.0000           -1.0509291             -28.5972
         2        2.0000           -0.6038807             -16.4324
         3        2.0000           -0.5911090             -16.0849
         4        2.0000           -0.5040013             -13.7146
         5        2.0000           -0.5039645             -13.7136
         6        2.0000           -0.4815730             -13.1043
         7        2.0000           -0.4200287             -11.4296
         8        2.0000           -0.4200276             -11.4295
         9        2.0000           -0.3350268              -9.1165
        10        2.0000           -0.3344243              -9.1001
        11        2.0000           -0.3344237              -9.1001 (HOMO)
        12                         -0.2348020              -6.3893 (LUMO)
        13                          0.0277929               0.7563
        14                          0.0278029               0.7566
        15                          0.0297863               0.8105
        16                          0.0297934               0.8107
        17                          0.0651796               1.7736
        18                          0.1454451               3.9578
        19                          0.2319738               6.3123
        20                          0.2321000               6.3158
      -------------------------------------------------------------
                  HL-Gap            0.0996218 Eh            2.7108 eV
             Fermi-level           -0.2846129 Eh           -7.7447 eV

     #   Z          covCN         q      C6AA      α(0)
     1   6 C        3.619    -0.028    21.555     6.696
     2  17 Cl       0.841    -0.256   107.201    15.839
     3   1 H        0.926     0.094     1.838     2.120
     4   1 H        0.926     0.094     1.840     2.121
     5   1 H        0.926     0.094     1.839     2.121
     6   9 F        0.000    -0.999    24.509     5.766

 Mol. C6AA /au·bohr⁶  :        569.611795
 Mol. C8AA /au·bohr⁸  :      15832.251223
 Mol. α(0) /au        :         34.663615


Wiberg/Mayer (AO) data.
largest (>0.10) Wiberg bond orders for each atom

 ---------------------------------------------------------------------------
     #   Z sym  total        # sym  WBO       # sym  WBO       # sym  WBO
 ---------------------------------------------------------------------------
     1   6 C    3.899 --     4 H    0.988     5 H    0.988     3 H    0.988
                             2 Cl   0.934
     2  17 Cl   0.945 --     1 C    0.934
     3   1 H    0.991 --     1 C    0.988
     4   1 H    0.991 --     1 C    0.988
     5   1 H    0.991 --     1 C    0.988
     6   9 F    0.002 -- ---------------------------------------------------------------------------

Topologies differ in total number of bonds
Writing topology from bond orders to xtbtopo.mol

molecular dipole:
                 x           y           z       tot (Debye)
 q only:       -4.347       0.260      -0.075
   full:       -4.483       0.253      -0.072      11.413
molecular quadrupole (traceless):
                xx          xy          yy          xz          yz          zz
 q only:      -35.125       0.533      17.490      -0.279       0.040      17.636
  q+dip:      -39.150       0.341      19.500      -0.229       0.041      19.650
   full:      -38.147       0.412      19.000      -0.237       0.040      19.147

           -------------------------------------------------
          |                Geometry Summary                 |
           -------------------------------------------------

      molecular mass/u    :       69.4858989
   center of mass at/Å    :        5.0539482      -0.0063081       0.0070698
  moments of inertia/u·Å² :        0.3274903E+01   0.3380330E+03   0.3380337E+03
rotational constants/cm⁻¹ :        0.5147520E+01   0.4986979E-01   0.4986968E-01

 * 3 selected distances

     #   Z          #   Z                                           value/Å
     1   6 C        3   1 H                                       1.0772233 (max)
     1   6 C        4   1 H                                       1.0772060 (min)
     1   6 C        5   1 H                                       1.0772161

 * 1 distinct bonds (by element types)

   Z      Z             #   av. dist./Å        max./Å        min./Å
   1 H    6 C           3     1.0772151     1.0772233     1.0772060


optimized geometry written to: xtbopt.xyz


           -------------------------------------------------
          | TOTAL ENERGY              -13.261875824999 Eh   |
          | GRADIENT NORM               0.000091777574 Eh/α |
          | HOMO-LUMO GAP               2.710846065493 eV   |
           -------------------------------------------------

------------------------------------------------------------------------
 * finished run on 2024/05/31 at 17:48:54.427     
------------------------------------------------------------------------
 total:
 * wall-time:     0 d,  0 h,  0 min,  0.095 sec
 *  cpu-time:     0 d,  0 h,  0 min,  0.524 sec
 * ratio c/w:     5.537 speedup
 SCF:
 * wall-time:     0 d,  0 h,  0 min,  0.006 sec
 *  cpu-time:     0 d,  0 h,  0 min,  0.043 sec
 * ratio c/w:     6.970 speedup
 ANC optimizer:
 * wall-time:     0 d,  0 h,  0 min,  0.044 sec
 *  cpu-time:     0 d,  0 h,  0 min,  0.307 sec
 * ratio c/w:     6.984 speedup

