      -----------------------------------------------------------      
     |                   =====================                   |     
     |                           x T B                           |     
     |                   =====================                   |     
     |                         S. Grimme                         |     
     |          Mulliken Center for Theoretical Chemistry        |     
     |                    University of Bonn                     |     
      -----------------------------------------------------------      

   * xtb version 6.3.3 (71d3805) compiled by 'conda@b85dec0bf610' on 2021-01-07

   xtb is free software: you can redistribute it and/or modify it under
   the terms of the GNU Lesser General Public License as published by
   the Free Software Foundation, either version 3 of the License, or
   (at your option) any later version.
   
   xtb is distributed in the hope that it will be useful,
   but WITHOUT ANY WARRANTY; without even the implied warranty of
   MERCHANTABILITY or FITNESS FOR A PARTICULAR PURPOSE.  See the
   GNU Lesser General Public License for more details.
   
   Cite this work as:
   * C. Bannwarth, E. Caldeweyher, S. Ehlert, A. Hansen, P. Pracht,
     J. Seibert, S. Spicher, S. Grimme, WIREs Comput. Mol. Sci., 2020,
     e01493. DOI: 10.1002/wcms.1493
   
   for GFN2-xTB:
   * S. Grimme, C. Bannwarth, P. Shushkov, J. Chem. Theory Comput., 2017,
     13, 1989-2009. DOI: 10.1021/acs.jctc.7b00118
   for GFN1-xTB:
   * C. Bannwarth, S. Ehlert and S. Grimme., J. Chem. Theory Comput., 2019,
     15, 1652-1671. DOI: 10.1021/acs.jctc.8b01176
   for GFN0-xTB:
   * P. Pracht, E. Caldeweyher, S. Ehlert, S. Grimme, ChemRxiv, 2019, preprint.
     DOI: 10.26434/chemrxiv.8326202.v1
   for GFN-FF:
   * S. Spicher and S. Grimme, Angew. Chem. Int. Ed., 2020, 59, 15665-15673.
     DOI: 10.1002/anie.202004239
   
   for DFT-D4:
   * E. Caldeweyher, C. Bannwarth and S. Grimme, J. Chem. Phys., 2017,
     147, 034112. DOI: 10.1063/1.4993215
   * E. Caldeweyher, S. Ehlert, A. Hansen, H. Neugebauer, S. Spicher,
     C. Bannwarth and S. Grimme, J. Chem. Phys., 2019, 150, 154122.
     DOI: 10.1063/1.5090222
   * E. Caldeweyher, J.-M. Mewes, S. Ehlert and S. Grimme, Phys. Chem. Chem. Phys.
     2020, 22, 8499-8512. DOI: 10.1039/D0CP00502A
   
   for sTDA-xTB:
   * S. Grimme and C. Bannwarth, J. Chem. Phys., 2016, 145, 054103.
     DOI: 10.1063/1.4959605
   
   in the mass-spec context:
   * V. Asgeirsson, C. Bauer and S. Grimme, Chem. Sci., 2017, 8, 4879.
     DOI: 10.1039/c7sc00601b
   * J. Koopman and S. Grimme, ACS Omega 2019, 4, 12, 15120-15133.
     DOI: 10.1021/acsomega.9b02011
   
   for metadynamics refer to:
   * S. Grimme, J. Chem. Theory Comput., 2019, 155, 2847-2862
     DOI: 10.1021/acs.jctc.9b00143
   
   with help from (in alphabetical order)
   C. Bannwarth, F. Bohle, G. Brandenburg, E. Caldeweyher, M. Checinski,
   S. Dohm, S. Ehlert, S. Ehrlich, F. März, H. Neugebauer, J. Pisarek,
   P. Pracht, P. Shushkov, and S. Spicher.
   
 * started run on 2024/05/31 at 17:48:54.856     

           -------------------------------------------------
          |                Calculation Setup                |
           -------------------------------------------------

          program call               : /home/thijs/miniconda3/envs/ts-tools/bin/xtb path_opt3_xtb.xyz --chrg -1 --uhf 0 --opt --gbsa Water --input xcontrol_path_opt3_xtb
          hostname                   : dale
          coordinate file            : path_opt3_xtb.xyz
          omp threads                :                     4
          number of atoms            :                     6
          number of electrons        :                    22
          charge                     :                    -1
          spin                       :                   0.0
          first test random number   :      0.99935478577024

   ID    Z sym.   atoms
    1    6 C      1
    2   17 Cl     2
    3    1 H      3-5
    4    9 F      6
constraining bond 1 6 to    2.3316000 Å, actual value:    2.6315945 Å
constraining bond 1 2 to    2.1310000 Å, actual value:    2.0760659 Å

molecular fragmentation (1/2 indicates fragments):
111112
# atoms in fragment 1/2:     5     1
 fragment masses (1/2) :       50.49       19.00
CMA distance (Bohr)    :   7.700
constraining FC (au)   :  2.0000

           -------------------------------------------------
          |                 G F N 2 - x T B                 |
           -------------------------------------------------

        Reference                      10.1021/acs.jctc.8b01176
      * Hamiltonian:
        H0-scaling (s, p, d)           1.850000    2.230000    2.230000
        zeta-weighting                 0.500000
      * Dispersion:
        s8                             2.700000
        a1                             0.520000
        a2                             5.000000
        s9                             5.000000
      * Repulsion:
        kExp                           1.500000    1.000000
        rExp                           1.000000
      * Coulomb:
        alpha                          2.000000
        third order                    shell-resolved
        anisotropic                    true
        a3                             3.000000
        a5                             4.000000
        cn-shift                       1.200000
        cn-exp                         4.000000
        max-rad                        5.000000

      * Solvation model:               GBSA
        Solvent                        Water
        Parameter file                 internal GFN2-xTB/GBSA
        Dielectric constant                8.0200E+01
        Reference state                gsolv [1 M gas/solution]
        Free energy shift                  1.8574E-03 Eh       1.1656E+00 kcal/mol
        Temperature                        2.9815E+02 K
        Density                            1.0000E+00 kg/L
        Solvent mass                       1.8000E+01 g/mol
        Interaction kernel             Still
        Born radius scaling (c1)           1.5524E+00
        Born radii integrator          GBOBC
        Born offset                        2.4628E-02 a0       4.6540E-02 AA
        H-bond correction              true
        Ion screening                  false
        Surface tension                    1.0000E-05 Eh       1.5569E+01 dyn/cm
        Grid points                               230 per atom

          ...................................................
          :                      SETUP                      :
          :.................................................:
          :  # basis functions                  21          :
          :  # atomic orbitals                  20          :
          :  # shells                           10          :
          :  # electrons                        22          :
          :  max. iterations                   250          :
          :  Hamiltonian                  GFN2-xTB          :
          :  restarted?                      false          :
          :  GBSA solvation                   true          :
          :  PC potential                    false          :
          :  electronic temp.          300.0000000     K    :
          :  accuracy                    1.0000000          :
          :  -> integral cutoff          0.2500000E+02      :
          :  -> integral neglect         0.1000000E-07      :
          :  -> SCF convergence          0.1000000E-05 Eh   :
          :  -> wf. convergence          0.1000000E-03 e    :
          :  Broyden damping             0.4000000          :
          ...................................................

 iter      E             dE          RMSdq      gap      omega  full diag
   1    -13.2322417 -0.132322E+02  0.616E+00    5.00       0.0  T
   2    -13.3018285 -0.695867E-01  0.322E+00    2.54       1.0  T
   3    -13.3087041 -0.687563E-02  0.175E+00    2.63       1.0  T
   4    -13.3092434 -0.539262E-03  0.216E-01    2.11       1.0  T
   5    -13.3092614 -0.179750E-04  0.184E-01    2.22       1.0  T
   6    -13.3093324 -0.710171E-04  0.612E-02    2.20       1.0  T
   7    -13.3093403 -0.791935E-05  0.444E-02    2.20       1.0  T
   8    -13.3093439 -0.363449E-05  0.174E-02    2.19       2.4  T
   9    -13.3093446 -0.681279E-06  0.111E-03    2.19      36.7  T
  10    -13.3093446 -0.192431E-08  0.469E-04    2.19      87.0  T
  11    -13.3093446 -0.294996E-09  0.626E-05    2.19     651.8  T

   *** convergence criteria satisfied after 11 iterations ***

         #    Occupation            Energy/Eh            Energy/eV
      -------------------------------------------------------------
         1        2.0000           -1.0441470             -28.4127
       ...           ...                  ...                  ...
         5        2.0000           -0.4977505             -13.5445
         6        2.0000           -0.4656213             -12.6702
         7        2.0000           -0.4150700             -11.2946
         8        2.0000           -0.4150673             -11.2946
         9        2.0000           -0.3387827              -9.2187
        10        2.0000           -0.3373736              -9.1804
        11        2.0000           -0.3373726              -9.1804 (HOMO)
        12                         -0.2567888              -6.9876 (LUMO)
        13                          0.0388332               1.0567
        14                          0.0388395               1.0569
        15                          0.0401046               1.0913
        16                          0.0401112               1.0915
       ...                                ...                  ...
        20                          0.2468067               6.7160
      -------------------------------------------------------------
                  HL-Gap            0.0805838 Eh            2.1928 eV
             Fermi-level           -0.2970807 Eh           -8.0840 eV

 SCC (total)                   0 d,  0 h,  0 min,  0.006 sec
 SCC setup                      ...        0 min,  0.000 sec (  7.092%)
 Dispersion                     ...        0 min,  0.000 sec (  0.518%)
 classical contributions        ...        0 min,  0.000 sec (  0.411%)
 integral evaluation            ...        0 min,  0.001 sec ( 22.692%)
 iterations                     ...        0 min,  0.004 sec ( 60.668%)
 molecular gradient             ...        0 min,  0.000 sec (  7.063%)
 printout                       ...        0 min,  0.000 sec (  1.362%)

         :::::::::::::::::::::::::::::::::::::::::::::::::::::
         ::                     SUMMARY                     ::
         :::::::::::::::::::::::::::::::::::::::::::::::::::::
         :: total energy             -12.587632453575 Eh    ::
         :: total w/o Gsasa/hb       -12.585510237217 Eh    ::
         :: gradient norm              3.492061696915 Eh/a0 ::
         :: HOMO-LUMO gap              2.192796616883 eV    ::
         ::.................................................::
         :: SCC energy               -13.309344610592 Eh    ::
         :: -> isotropic ES            0.262611190340 Eh    ::
         :: -> anisotropic ES         -0.000979675768 Eh    ::
         :: -> anisotropic XC          0.005060774008 Eh    ::
         :: -> dispersion             -0.001916061646 Eh    ::
         :: -> Gsolv                  -0.126345266691 Eh    ::
         ::    -> Gborn               -0.124223050334 Eh    ::
         ::    -> Gsasa                0.000783344434 Eh    ::
         ::    -> Ghb                 -0.004763003918 Eh    ::
         ::    -> Gshift               0.001857443127 Eh    ::
         :: repulsion energy           0.057391604501 Eh    ::
         :: add. restraining           0.664321002913 Eh    ::
         :: total charge              -1.000000000000 e     ::
         :::::::::::::::::::::::::::::::::::::::::::::::::::::

      ----------------------------------------------------------- 
     |                   =====================                   |
     |                        A N C O P T                        |
     |                   =====================                   |
     |               Approximate Normal Coordinate               |
     |                Rational Function Optimizer                |
      ----------------------------------------------------------- 

          ...................................................
          :                      SETUP                      :
          :.................................................:
          :   optimization level            normal          :
          :   max. optcycles                   200          :
          :   ANC micro-cycles                  20          :
          :   degrees of freedom                12          :
          :.................................................:
          :   RF solver                   davidson          :
          :   write xtbopt.log                true          :
          :   linear?                        false          :
          :   energy convergence         0.5000000E-05 Eh   :
          :   grad. convergence          0.1000000E-02 Eh/α :
          :   maximium RF displ.         1.0000000          :
          :   Hlow (freq-cutoff)         0.1000000E-01      :
          :   Hmax (freq-cutoff)         5.0000000          :
          :   S6 in model hess.         20.0000000          :
          ...................................................

generating ANC from model Hessian ...
Using Lindh-Hessian (1995)
 Shifting diagonal of input Hessian by    2.5739232006590888E-002
 Lowest  eigenvalues of input Hessian
    0.010000    0.010019    0.000000    0.000000    0.000000    0.000000
    0.000000    0.000000    0.085590    0.143767    0.143767    0.291679
    0.291690    0.480816    1.498610    1.498883    4.090790   12.345102
 Highest eigenvalues
    0.291690    0.480816    1.498610    1.498883    4.090790   12.345102


........................................................................
.............................. CYCLE    1 ..............................
........................................................................
   1    -13.3093446 -0.133093E+02  0.210E-05    2.19       0.0  T
   2    -13.3093446 -0.174083E-12  0.130E-05    2.19    3143.3  T
   3    -13.3093446 -0.129674E-12  0.555E-06    2.19    7353.3  T
     SCC iter.                  ...        0 min,  0.001 sec
     gradient                   ...        0 min,  0.000 sec
 * total energy  :   -12.5876325 Eh     change       -0.8762768E-11 Eh
   gradient norm :     3.4920615 Eh/α   predicted     0.0000000E+00 (-100.00%)
   displ. norm   :     0.5249150 α      lambda       -0.1829700E+01
   maximum displ.:     0.4688703 α      in ANC's #12, #11, #8, ...

........................................................................
.............................. CYCLE    2 ..............................
........................................................................
   1    -13.2863899 -0.132864E+02  0.277E+00    1.53       0.0  T
   2    -13.2996036 -0.132138E-01  0.126E+00    2.58       1.0  T
   3    -13.3024635 -0.285983E-02  0.500E-01    2.21       1.0  T
   4    -13.3035280 -0.106448E-02  0.225E-01    2.40       1.0  T
   5    -13.3035686 -0.406482E-04  0.925E-02    2.40       1.0  T
   6    -13.3035855 -0.168484E-04  0.579E-02    2.37       1.0  T
   7    -13.3035924 -0.698760E-05  0.256E-02    2.38       1.6  T
   8    -13.3035942 -0.175900E-05  0.740E-03    2.40       5.5  T
   9    -13.3035944 -0.182642E-06  0.427E-04    2.39      95.5  T
  10    -13.3035944 -0.416895E-09  0.124E-04    2.39     328.7  T
     SCC iter.                  ...        0 min,  0.001 sec
     gradient                   ...        0 min,  0.000 sec
 * total energy  :   -12.9790930 Eh     change       -0.3914606E+00 Eh
   gradient norm :     2.4490393 Eh/α   predicted    -0.1166924E+01 ( 198.09%)
   displ. norm   :     0.2235137 α      lambda       -0.5184867E+00
   maximum displ.:     0.1975431 α      in ANC's #12, #11, #8, ...

........................................................................
.............................. CYCLE    3 ..............................
........................................................................
   1    -13.3087809 -0.133088E+02  0.116E+00    3.21       0.0  T
   2    -13.3096964 -0.915416E-03  0.482E-01    2.86       1.0  T
   3    -13.3099297 -0.233349E-03  0.187E-01    2.55       1.0  T
   4    -13.3099774 -0.476670E-04  0.123E-01    2.56       1.0  T
   5    -13.3100098 -0.324377E-04  0.668E-02    2.58       1.0  T
   6    -13.3100139 -0.411622E-05  0.661E-02    2.52       1.0  T
   7    -13.3100240 -0.100177E-04  0.305E-03    2.55      13.4  T
   8    -13.3100240  0.305528E-09  0.118E-03    2.55      34.6  T
   9    -13.3100240 -0.366031E-08  0.513E-05    2.55     795.9  T
  10    -13.3100240 -0.850875E-12  0.213E-05    2.55    1917.2  T
     SCC iter.                  ...        0 min,  0.001 sec
     gradient                   ...        0 min,  0.000 sec
 * total energy  :   -13.2464081 Eh     change       -0.2673151E+00 Eh
   gradient norm :     0.0843085 Eh/α   predicted    -0.2721947E+00 (   1.83%)
   displ. norm   :     0.1076535 α      lambda       -0.1985416E-02
   maximum displ.:     0.1023192 α      in ANC's #3, #8, #12, ...

........................................................................
.............................. CYCLE    4 ..............................
........................................................................
   1    -13.3086435 -0.133086E+02  0.227E-01    2.55       0.0  T
   2    -13.3086501 -0.655820E-05  0.129E-01    2.56       1.0  T
   3    -13.3086478  0.223871E-05  0.529E-02    2.53       1.0  T
   4    -13.3086521 -0.432487E-05  0.660E-03    2.54       6.2  T
   5    -13.3086522 -0.479031E-07  0.323E-03    2.54      12.6  T
   6    -13.3086522 -0.276673E-07  0.202E-03    2.54      20.2  T
   7    -13.3086522 -0.113065E-07  0.911E-04    2.54      44.8  T
   8    -13.3086522 -0.161227E-08  0.661E-05    2.54     617.2  T
     SCC iter.                  ...        0 min,  0.001 sec
     gradient                   ...        0 min,  0.000 sec
 * total energy  :   -13.2476231 Eh     change       -0.1214984E-02 Eh
   gradient norm :     0.0095097 Eh/α   predicted    -0.1004210E-02 ( -17.35%)
   displ. norm   :     0.0524776 α      lambda       -0.2522831E-03
   maximum displ.:     0.0390177 α      in ANC's #3, #1, #8, ...

........................................................................
.............................. CYCLE    5 ..............................
........................................................................
   1    -13.3063513 -0.133064E+02  0.991E-02    2.54       0.0  T
   2    -13.3063517 -0.409947E-06  0.587E-02    2.54       1.0  T
   3    -13.3063514  0.244055E-06  0.116E-02    2.54       3.5  T
   4    -13.3063518 -0.407304E-06  0.218E-03    2.54      18.7  T
   5    -13.3063518 -0.494072E-08  0.116E-03    2.54      35.2  T
   6    -13.3063518 -0.235056E-08  0.803E-04    2.54      50.8  T
   7    -13.3063518 -0.185852E-08  0.380E-04    2.54     107.4  T
     SCC iter.                  ...        0 min,  0.001 sec
     gradient                   ...        0 min,  0.000 sec
 * total energy  :   -13.2477360 Eh     change       -0.1129532E-03 Eh
   gradient norm :     0.0068803 Eh/α   predicted    -0.1264886E-03 (  11.98%)
   displ. norm   :     0.0795933 α      lambda       -0.8143994E-04
   maximum displ.:     0.0787823 α      in ANC's #1, #3, #8, ...

........................................................................
.............................. CYCLE    6 ..............................
........................................................................
   1    -13.3054323 -0.133054E+02  0.137E-01    2.54       0.0  T
   2    -13.3054324 -0.183931E-06  0.807E-02    2.54       1.0  T
   3    -13.3054325 -0.892062E-07  0.196E-03    2.54      20.8  T
   4    -13.3054325 -0.253255E-08  0.133E-03    2.54      30.7  T
   5    -13.3054325 -0.183215E-08  0.652E-04    2.54      62.6  T
   6    -13.3054325 -0.520094E-09  0.402E-04    2.54     101.4  T
     SCC iter.                  ...        0 min,  0.001 sec
     gradient                   ...        0 min,  0.000 sec
 * total energy  :   -13.2476701 Eh     change        0.6594771E-04 Eh
   gradient norm :     0.0038835 Eh/α   predicted    -0.4097747E-04 (-162.14%)
   displ. norm   :     0.0574748 α      lambda       -0.1579663E-03
   maximum displ.:     0.0560546 α      in ANC's #1, #3, #8, ...

........................................................................
.............................. CYCLE    7 ..............................
........................................................................
   1    -13.3062633 -0.133063E+02  0.994E-02    2.54       0.0  T
   2    -13.3062635 -0.115911E-06  0.586E-02    2.54       1.0  T
   3    -13.3062635 -0.551501E-08  0.382E-03    2.54      10.7  T
   4    -13.3062635 -0.495942E-07  0.992E-04    2.54      41.1  T
   5    -13.3062635 -0.536652E-09  0.414E-04    2.54      98.5  T
     SCC iter.                  ...        0 min,  0.001 sec
     gradient                   ...        0 min,  0.000 sec
 * total energy  :   -13.2477493 Eh     change       -0.7926281E-04 Eh
   gradient norm :     0.0005027 Eh/α   predicted    -0.7924244E-04 (  -0.03%)
   displ. norm   :     0.0010814 α      lambda       -0.1022649E-06
   maximum displ.:     0.0006226 α      in ANC's #1, #5, #7, ...

........................................................................
.............................. CYCLE    8 ..............................
........................................................................
   1    -13.3062145 -0.133062E+02  0.149E-03    2.54       0.0  T
   2    -13.3062145 -0.230164E-09  0.875E-04    2.54      46.7  T
   3    -13.3062145 -0.852118E-10  0.220E-04    2.54     185.8  T
     SCC iter.                  ...        0 min,  0.000 sec
     gradient                   ...        0 min,  0.000 sec
 * total energy  :   -13.2477494 Eh     change       -0.9508169E-07 Eh
   gradient norm :     0.0002309 Eh/α   predicted    -0.5221467E-07 ( -45.08%)
   displ. norm   :     0.0029908 α      lambda       -0.1342653E-06
   maximum displ.:     0.0025316 α      in ANC's #2, #7, #5, ...

   *** GEOMETRY OPTIMIZATION CONVERGED AFTER 8 ITERATIONS ***

------------------------------------------------------------------------
 total energy gain   :        -0.6601170 Eh     -414.2297 kcal/mol
 total RMSD          :         0.1877653 a0        0.0994 Å
 total power (kW/mol):      -216.6421124 (step)********** (real)
------------------------------------------------------------------------

 ANCopt (total)                0 d,  0 h,  0 min,  0.019 sec
 optimizer setup                ...        0 min,  0.000 sec (  0.352%)
 model hessian                  ...        0 min,  0.001 sec (  5.130%)
 ANC generation                 ...        0 min,  0.000 sec (  0.595%)
 coordinate transformation      ...        0 min,  0.000 sec (  0.090%)
 single point calculation       ...        0 min,  0.017 sec ( 88.502%)
 optimization log               ...        0 min,  0.000 sec (  1.534%)
 hessian update                 ...        0 min,  0.000 sec (  0.157%)
 rational function              ...        0 min,  0.000 sec (  1.840%)

================
 final structure:
================
6
 xtb: 6.3.3 (71d3805)
C         4.72470932319126   -0.02174960632001    0.00374087566272
Cl        6.84783409608234    0.07886410338087   -0.00875393240801
H         4.54888489493857   -0.57111971288032   -0.89975692731663
H         4.55938548275582   -0.54350634971732    0.92534750157679
H         4.47913682721482    1.02155810909349   -0.01060415241180
F         2.39612937581718   -0.13244654355671    0.03338663489693

 Bond Distances (Angstroems)
 ---------------------------
C1-Cl2=2.1255        C1-H3=1.0719         C1-H4=1.0719         C1-H5=1.0719         Cl2-C1=2.1255        H3-C1=1.0719         
H4-C1=1.0719         H5-C1=1.0719         
 C  H  Rav=1.0719 sigma=0.0000  Rmin=1.0719  Rmax=1.0719     3
 Cl C  Rav=2.1255 sigma=0.0000  Rmin=2.1255  Rmax=2.1255     1

 selected bond angles (degree)
 --------------------
H3-C1-Cl2=100.55               H4-C1-Cl2=100.50               H4-C1-H3=116.74                H5-C1-Cl2=100.53               
H5-C1-H3=116.74                H5-C1-H4=116.74                

 selected dihedral angles (degree)
 ---------------------------------


 CMA Distance (Angstroems)
 ---------------------------
R(CMA):  3.8122
           -------------------------------------------------
          |                Final Singlepoint                |
           -------------------------------------------------

          ...................................................
          :                      SETUP                      :
          :.................................................:
          :  # basis functions                  21          :
          :  # atomic orbitals                  20          :
          :  # shells                           10          :
          :  # electrons                        22          :
          :  max. iterations                   250          :
          :  Hamiltonian                  GFN2-xTB          :
          :  restarted?                      false          :
          :  GBSA solvation                   true          :
          :  PC potential                    false          :
          :  electronic temp.          300.0000000     K    :
          :  accuracy                    1.0000000          :
          :  -> integral cutoff          0.2500000E+02      :
          :  -> integral neglect         0.1000000E-07      :
          :  -> SCF convergence          0.1000000E-05 Eh   :
          :  -> wf. convergence          0.1000000E-03 e    :
          :  Broyden damping             0.4000000          :
          ...................................................

 iter      E             dE          RMSdq      gap      omega  full diag
   1    -13.3062145 -0.133062E+02  0.144E-04    2.54       0.0  T
   2    -13.3062145 -0.150493E-10  0.118E-04    2.54     346.2  T
   3    -13.3062145 -0.201830E-10  0.724E-05    2.54     563.8  T

   *** convergence criteria satisfied after 3 iterations ***

         #    Occupation            Energy/Eh            Energy/eV
      -------------------------------------------------------------
         1        2.0000           -1.0359128             -28.1886
       ...           ...                  ...                  ...
         5        2.0000           -0.4936066             -13.4317
         6        2.0000           -0.4525549             -12.3146
         7        2.0000           -0.4073880             -11.0856
         8        2.0000           -0.4073878             -11.0856
         9        2.0000           -0.3516089              -9.5678
        10        2.0000           -0.3494178              -9.5081
        11        2.0000           -0.3494161              -9.5081 (HOMO)
        12                         -0.2559933              -6.9659 (LUMO)
        13                          0.0527371               1.4350
        14                          0.0527412               1.4352
        15                          0.0536035               1.4586
        16                          0.0536095               1.4588
       ...                                ...                  ...
        20                          0.2615835               7.1181
      -------------------------------------------------------------
                  HL-Gap            0.0934228 Eh            2.5422 eV
             Fermi-level           -0.3027047 Eh           -8.2370 eV

 SCC (total)                   0 d,  0 h,  0 min,  0.002 sec
 SCC setup                      ...        0 min,  0.000 sec ( 11.712%)
 Dispersion                     ...        0 min,  0.000 sec (  1.306%)
 classical contributions        ...        0 min,  0.000 sec (  0.299%)
 integral evaluation            ...        0 min,  0.001 sec ( 30.087%)
 iterations                     ...        0 min,  0.000 sec ( 26.900%)
 molecular gradient             ...        0 min,  0.000 sec ( 24.238%)
 printout                       ...        0 min,  0.000 sec (  5.030%)

         :::::::::::::::::::::::::::::::::::::::::::::::::::::
         ::                     SUMMARY                     ::
         :::::::::::::::::::::::::::::::::::::::::::::::::::::
         :: total energy             -13.247749435867 Eh    ::
         :: total w/o Gsasa/hb       -13.246339280119 Eh    ::
         :: gradient norm              0.000231049714 Eh/a0 ::
         :: HOMO-LUMO gap              2.542163571388 eV    ::
         ::.................................................::
         :: SCC energy               -13.306214492219 Eh    ::
         :: -> isotropic ES            0.235033455911 Eh    ::
         :: -> anisotropic ES         -0.000595839529 Eh    ::
         :: -> anisotropic XC          0.004944448489 Eh    ::
         :: -> dispersion             -0.001976811611 Eh    ::
         :: -> Gsolv                  -0.112984498280 Eh    ::
         ::    -> Gborn               -0.111574342532 Eh    ::
         ::    -> Gsasa                0.000673373314 Eh    ::
         ::    -> Ghb                 -0.003940972189 Eh    ::
         ::    -> Gshift               0.001857443127 Eh    ::
         :: repulsion energy           0.058252437493 Eh    ::
         :: add. restraining           0.000212883821 Eh    ::
         :: total charge              -1.000000000000 e     ::
         :::::::::::::::::::::::::::::::::::::::::::::::::::::

           -------------------------------------------------
          |                Property Printout                |
           -------------------------------------------------

    * Orbital Energies and Occupations

         #    Occupation            Energy/Eh            Energy/eV
      -------------------------------------------------------------
         1        2.0000           -1.0359128             -28.1886
         2        2.0000           -0.6179733             -16.8159
         3        2.0000           -0.5890756             -16.0296
         4        2.0000           -0.4936395             -13.4326
         5        2.0000           -0.4936066             -13.4317
         6        2.0000           -0.4525549             -12.3146
         7        2.0000           -0.4073880             -11.0856
         8        2.0000           -0.4073878             -11.0856
         9        2.0000           -0.3516089              -9.5678
        10        2.0000           -0.3494178              -9.5081
        11        2.0000           -0.3494161              -9.5081 (HOMO)
        12                         -0.2559933              -6.9659 (LUMO)
        13                          0.0527371               1.4350
        14                          0.0527412               1.4352
        15                          0.0536035               1.4586
        16                          0.0536095               1.4588
        17                          0.0687449               1.8706
        18                          0.1381652               3.7597
        19                          0.2614620               7.1147
        20                          0.2615835               7.1181
      -------------------------------------------------------------
                  HL-Gap            0.0934228 Eh            2.5422 eV
             Fermi-level           -0.3027047 Eh           -8.2370 eV

     #   Z          covCN         q      C6AA      α(0)
     1   6 C        3.508    -0.003    22.148     6.964
     2  17 Cl       0.727    -0.403   111.996    16.187
     3   1 H        0.926     0.097     1.816     2.107
     4   1 H        0.926     0.097     1.814     2.106
     5   1 H        0.926     0.097     1.815     2.107
     6   9 F        0.002    -0.884    21.963     5.458

 Mol. C6AA /au·bohr⁶  :        569.934736
 Mol. C8AA /au·bohr⁸  :      15999.350817
 Mol. α(0) /au        :         34.929562


Wiberg/Mayer (AO) data.
largest (>0.10) Wiberg bond orders for each atom

 ---------------------------------------------------------------------------
     #   Z sym  total        # sym  WBO       # sym  WBO       # sym  WBO
 ---------------------------------------------------------------------------
     1   6 C    3.881 --     3 H    0.988     5 H    0.988     4 H    0.988
                             2 Cl   0.767     6 F    0.148
     2  17 Cl   0.844 --     1 C    0.767
     3   1 H    0.991 --     1 C    0.988
     4   1 H    0.991 --     1 C    0.988
     5   1 H    0.991 --     1 C    0.988
     6   9 F    0.219 --     1 C    0.148
 ---------------------------------------------------------------------------

Topologies differ in total number of bonds
Writing topology from bond orders to xtbtopo.mol

molecular dipole:
                 x           y           z       tot (Debye)
 q only:       -6.765       0.144      -0.046
   full:       -6.911       0.137      -0.044      17.570
molecular quadrupole (traceless):
                xx          xy          yy          xz          yz          zz
 q only:      -65.188       0.079      32.548      -0.204       0.022      32.640
  q+dip:      -69.562      -0.131      34.733      -0.157       0.023      34.829
   full:      -68.581      -0.062      34.244      -0.167       0.023      34.337

           -------------------------------------------------
          |                Geometry Summary                 |
           -------------------------------------------------

      molecular mass/u    :       69.4858989
   center of mass at/Å    :        5.1627886      -0.0010843       0.0055260
  moments of inertia/u·Å² :        0.3359080E+01   0.2518677E+03   0.2518683E+03
rotational constants/cm⁻¹ :        0.5018526E+01   0.6693050E-01   0.6693033E-01

 * 3 selected distances

     #   Z          #   Z                                           value/Å
     1   6 C        3   1 H                                       1.0719282 (max)
     1   6 C        4   1 H                                       1.0718773 (min)
     1   6 C        5   1 H                                       1.0719154

 * 1 distinct bonds (by element types)

   Z      Z             #   av. dist./Å        max./Å        min./Å
   1 H    6 C           3     1.0719069     1.0719282     1.0718773


optimized geometry written to: xtbopt.xyz


           -------------------------------------------------
          | TOTAL ENERGY              -13.247749435867 Eh   |
          | GRADIENT NORM               0.000231049714 Eh/α |
          | HOMO-LUMO GAP               2.542163571388 eV   |
           -------------------------------------------------

------------------------------------------------------------------------
 * finished run on 2024/05/31 at 17:48:54.931     
------------------------------------------------------------------------
 total:
 * wall-time:     0 d,  0 h,  0 min,  0.075 sec
 *  cpu-time:     0 d,  0 h,  0 min,  0.389 sec
 * ratio c/w:     5.184 speedup
 SCF:
 * wall-time:     0 d,  0 h,  0 min,  0.007 sec
 *  cpu-time:     0 d,  0 h,  0 min,  0.046 sec
 * ratio c/w:     6.981 speedup
 ANC optimizer:
 * wall-time:     0 d,  0 h,  0 min,  0.022 sec
 *  cpu-time:     0 d,  0 h,  0 min,  0.151 sec
 * ratio c/w:     6.986 speedup

