      -----------------------------------------------------------      
     |                   =====================                   |     
     |                           x T B                           |     
     |                   =====================                   |     
     |                         S. Grimme                         |     
     |          Mulliken Center for Theoretical Chemistry        |     
     |                    University of Bonn                     |     
      -----------------------------------------------------------      

   * xtb version 6.3.3 (71d3805) compiled by 'conda@b85dec0bf610' on 2021-01-07

   xtb is free software: you can redistribute it and/or modify it under
   the terms of the GNU Lesser General Public License as published by
   the Free Software Foundation, either version 3 of the License, or
   (at your option) any later version.
   
   xtb is distributed in the hope that it will be useful,
   but WITHOUT ANY WARRANTY; without even the implied warranty of
   MERCHANTABILITY or FITNESS FOR A PARTICULAR PURPOSE.  See the
   GNU Lesser General Public License for more details.
   
   Cite this work as:
   * C. Bannwarth, E. Caldeweyher, S. Ehlert, A. Hansen, P. Pracht,
     J. Seibert, S. Spicher, S. Grimme, WIREs Comput. Mol. Sci., 2020,
     e01493. DOI: 10.1002/wcms.1493
   
   for GFN2-xTB:
   * S. Grimme, C. Bannwarth, P. Shushkov, J. Chem. Theory Comput., 2017,
     13, 1989-2009. DOI: 10.1021/acs.jctc.7b00118
   for GFN1-xTB:
   * C. Bannwarth, S. Ehlert and S. Grimme., J. Chem. Theory Comput., 2019,
     15, 1652-1671. DOI: 10.1021/acs.jctc.8b01176
   for GFN0-xTB:
   * P. Pracht, E. Caldeweyher, S. Ehlert, S. Grimme, ChemRxiv, 2019, preprint.
     DOI: 10.26434/chemrxiv.8326202.v1
   for GFN-FF:
   * S. Spicher and S. Grimme, Angew. Chem. Int. Ed., 2020, 59, 15665-15673.
     DOI: 10.1002/anie.202004239
   
   for DFT-D4:
   * E. Caldeweyher, C. Bannwarth and S. Grimme, J. Chem. Phys., 2017,
     147, 034112. DOI: 10.1063/1.4993215
   * E. Caldeweyher, S. Ehlert, A. Hansen, H. Neugebauer, S. Spicher,
     C. Bannwarth and S. Grimme, J. Chem. Phys., 2019, 150, 154122.
     DOI: 10.1063/1.5090222
   * E. Caldeweyher, J.-M. Mewes, S. Ehlert and S. Grimme, Phys. Chem. Chem. Phys.
     2020, 22, 8499-8512. DOI: 10.1039/D0CP00502A
   
   for sTDA-xTB:
   * S. Grimme and C. Bannwarth, J. Chem. Phys., 2016, 145, 054103.
     DOI: 10.1063/1.4959605
   
   in the mass-spec context:
   * V. Asgeirsson, C. Bauer and S. Grimme, Chem. Sci., 2017, 8, 4879.
     DOI: 10.1039/c7sc00601b
   * J. Koopman and S. Grimme, ACS Omega 2019, 4, 12, 15120-15133.
     DOI: 10.1021/acsomega.9b02011
   
   for metadynamics refer to:
   * S. Grimme, J. Chem. Theory Comput., 2019, 155, 2847-2862
     DOI: 10.1021/acs.jctc.9b00143
   
   with help from (in alphabetical order)
   C. Bannwarth, F. Bohle, G. Brandenburg, E. Caldeweyher, M. Checinski,
   S. Dohm, S. Ehlert, S. Ehrlich, F. März, H. Neugebauer, J. Pisarek,
   P. Pracht, P. Shushkov, and S. Spicher.
   
 * started run on 2024/05/31 at 17:48:55.197     

           -------------------------------------------------
          |                Calculation Setup                |
           -------------------------------------------------

          program call               : /home/thijs/miniconda3/envs/ts-tools/bin/xtb path_opt5_xtb.xyz --chrg -1 --uhf 0 --opt --gbsa Water --input xcontrol_path_opt5_xtb
          hostname                   : dale
          coordinate file            : path_opt5_xtb.xyz
          omp threads                :                     4
          number of atoms            :                     6
          number of electrons        :                    22
          charge                     :                    -1
          spin                       :                   0.0
          first test random number   :      0.72012057503293

   ID    Z sym.   atoms
    1    6 C      1
    2   17 Cl     2
    3    1 H      3-5
    4    9 F      6
constraining bond 1 6 to    1.7307000 Å, actual value:    2.0306845 Å
constraining bond 1 2 to    2.4042000 Å, actual value:    2.1948814 Å

molecular fragmentation (1/2 indicates fragments):
111112
# atoms in fragment 1/2:     5     1
 fragment masses (1/2) :       50.49       19.00
CMA distance (Bohr)    :   6.741
constraining FC (au)   :  2.0000

           -------------------------------------------------
          |                 G F N 2 - x T B                 |
           -------------------------------------------------

        Reference                      10.1021/acs.jctc.8b01176
      * Hamiltonian:
        H0-scaling (s, p, d)           1.850000    2.230000    2.230000
        zeta-weighting                 0.500000
      * Dispersion:
        s8                             2.700000
        a1                             0.520000
        a2                             5.000000
        s9                             5.000000
      * Repulsion:
        kExp                           1.500000    1.000000
        rExp                           1.000000
      * Coulomb:
        alpha                          2.000000
        third order                    shell-resolved
        anisotropic                    true
        a3                             3.000000
        a5                             4.000000
        cn-shift                       1.200000
        cn-exp                         4.000000
        max-rad                        5.000000

      * Solvation model:               GBSA
        Solvent                        Water
        Parameter file                 internal GFN2-xTB/GBSA
        Dielectric constant                8.0200E+01
        Reference state                gsolv [1 M gas/solution]
        Free energy shift                  1.8574E-03 Eh       1.1656E+00 kcal/mol
        Temperature                        2.9815E+02 K
        Density                            1.0000E+00 kg/L
        Solvent mass                       1.8000E+01 g/mol
        Interaction kernel             Still
        Born radius scaling (c1)           1.5524E+00
        Born radii integrator          GBOBC
        Born offset                        2.4628E-02 a0       4.6540E-02 AA
        H-bond correction              true
        Ion screening                  false
        Surface tension                    1.0000E-05 Eh       1.5569E+01 dyn/cm
        Grid points                               230 per atom

          ...................................................
          :                      SETUP                      :
          :.................................................:
          :  # basis functions                  21          :
          :  # atomic orbitals                  20          :
          :  # shells                           10          :
          :  # electrons                        22          :
          :  max. iterations                   250          :
          :  Hamiltonian                  GFN2-xTB          :
          :  restarted?                      false          :
          :  GBSA solvation                   true          :
          :  PC potential                    false          :
          :  electronic temp.          300.0000000     K    :
          :  accuracy                    1.0000000          :
          :  -> integral cutoff          0.2500000E+02      :
          :  -> integral neglect         0.1000000E-07      :
          :  -> SCF convergence          0.1000000E-05 Eh   :
          :  -> wf. convergence          0.1000000E-03 e    :
          :  Broyden damping             0.4000000          :
          ...................................................

 iter      E             dE          RMSdq      gap      omega  full diag
   1    -13.2071530 -0.132072E+02  0.691E+00    5.33       0.0  T
   2    -13.2938874 -0.867344E-01  0.256E+00    3.07       1.0  T
   3    -13.3031083 -0.922094E-02  0.172E+00    3.74       1.0  T
   4    -13.3044869 -0.137855E-02  0.265E-01    3.50       1.0  T
   5    -13.3047315 -0.244600E-03  0.143E-01    3.61       1.0  T
   6    -13.3047631 -0.315876E-04  0.851E-02    3.55       1.0  T
   7    -13.3047796 -0.165518E-04  0.472E-02    3.56       1.0  T
   8    -13.3047861 -0.652307E-05  0.340E-03    3.57      12.0  T
   9    -13.3047861  0.118948E-07  0.335E-03    3.57      12.2  T
  10    -13.3047862 -0.311937E-07  0.587E-04    3.57      69.5  T
  11    -13.3047862 -0.763171E-09  0.815E-05    3.57     500.9  T

   *** convergence criteria satisfied after 11 iterations ***

         #    Occupation            Energy/Eh            Energy/eV
      -------------------------------------------------------------
         1        2.0000           -1.0215264             -27.7971
       ...           ...                  ...                  ...
         5        2.0000           -0.4925162             -13.4020
         6        2.0000           -0.4412347             -12.0066
         7        2.0000           -0.3961408             -10.7795
         8        2.0000           -0.3961364             -10.7794
         9        2.0000           -0.3766730             -10.2498
        10        2.0000           -0.3766627             -10.2495
        11        2.0000           -0.3752356             -10.2107 (HOMO)
        12                         -0.2442134              -6.6454 (LUMO)
        13                          0.0775431               2.1101
        14                          0.0775450               2.1101
        15                          0.0780258               2.1232
        16                          0.0780280               2.1232
       ...                                ...                  ...
        20                          0.2783688               7.5748
      -------------------------------------------------------------
                  HL-Gap            0.1310222 Eh            3.5653 eV
             Fermi-level           -0.3097245 Eh           -8.4280 eV

 SCC (total)                   0 d,  0 h,  0 min,  0.005 sec
 SCC setup                      ...        0 min,  0.000 sec (  6.319%)
 Dispersion                     ...        0 min,  0.000 sec (  0.490%)
 classical contributions        ...        0 min,  0.000 sec (  0.397%)
 integral evaluation            ...        0 min,  0.001 sec ( 19.077%)
 iterations                     ...        0 min,  0.003 sec ( 56.515%)
 molecular gradient             ...        0 min,  0.001 sec ( 14.618%)
 printout                       ...        0 min,  0.000 sec (  2.362%)

         :::::::::::::::::::::::::::::::::::::::::::::::::::::
         ::                     SUMMARY                     ::
         :::::::::::::::::::::::::::::::::::::::::::::::::::::
         :: total energy             -12.290033327033 Eh    ::
         :: total w/o Gsasa/hb       -12.289475578382 Eh    ::
         :: gradient norm              4.726169994678 Eh/a0 ::
         :: HOMO-LUMO gap              3.565294970935 eV    ::
         ::.................................................::
         :: SCC energy               -13.304786158531 Eh    ::
         :: -> isotropic ES            0.197240311671 Eh    ::
         :: -> anisotropic ES         -0.000171309029 Eh    ::
         :: -> anisotropic XC          0.004673902250 Eh    ::
         :: -> dispersion             -0.001997968708 Eh    ::
         :: -> Gsolv                  -0.097513997295 Eh    ::
         ::    -> Gborn               -0.096956248644 Eh    ::
         ::    -> Gsasa                0.000575856303 Eh    ::
         ::    -> Ghb                 -0.002991048080 Eh    ::
         ::    -> Gshift               0.001857443127 Eh    ::
         :: repulsion energy           0.059100847388 Eh    ::
         :: add. restraining           0.955652119621 Eh    ::
         :: total charge              -1.000000000000 e     ::
         :::::::::::::::::::::::::::::::::::::::::::::::::::::

      ----------------------------------------------------------- 
     |                   =====================                   |
     |                        A N C O P T                        |
     |                   =====================                   |
     |               Approximate Normal Coordinate               |
     |                Rational Function Optimizer                |
      ----------------------------------------------------------- 

          ...................................................
          :                      SETUP                      :
          :.................................................:
          :   optimization level            normal          :
          :   max. optcycles                   200          :
          :   ANC micro-cycles                  20          :
          :   degrees of freedom                12          :
          :.................................................:
          :   RF solver                   davidson          :
          :   write xtbopt.log                true          :
          :   linear?                        false          :
          :   energy convergence         0.5000000E-05 Eh   :
          :   grad. convergence          0.1000000E-02 Eh/α :
          :   maximium RF displ.         1.0000000          :
          :   Hlow (freq-cutoff)         0.1000000E-01      :
          :   Hmax (freq-cutoff)         5.0000000          :
          :   S6 in model hess.         20.0000000          :
          ...................................................

generating ANC from model Hessian ...
Using Lindh-Hessian (1995)
 Shifting diagonal of input Hessian by   0.16132759051578546     
 Lowest  eigenvalues of input Hessian
    0.010000    0.010319    0.000000    0.000000    0.000000    0.000000
    0.000000    0.000000    0.186610    0.306359    0.306384    0.498162
    0.498492    0.598318    1.637088    1.637867    4.230835   12.421993
 Highest eigenvalues
    0.498492    0.598318    1.637088    1.637867    4.230835   12.421993


........................................................................
.............................. CYCLE    1 ..............................
........................................................................
   1    -13.3047862 -0.133048E+02  0.293E-05    3.57       0.0  T
   2    -13.3047862 -0.148681E-11  0.160E-05    3.57    2558.8  T
   3    -13.3047862 -0.460076E-12  0.121E-05    3.57    3366.5  T
     SCC iter.                  ...        0 min,  0.001 sec
     gradient                   ...        0 min,  0.000 sec
 * total energy  :   -12.2900333 Eh     change       -0.1593925E-10 Eh
   gradient norm :     4.7261696 Eh/α   predicted     0.0000000E+00 (-100.00%)
   displ. norm   :     0.6029448 α      lambda       -0.2849354E+01
   maximum displ.:     0.5986053 α      in ANC's #12, #11, #8, ...

........................................................................
.............................. CYCLE    2 ..............................
........................................................................
   1    -13.3129497 -0.133129E+02  0.267E+00    6.62       0.0  T
   2    -13.3193007 -0.635101E-02  0.143E+00    6.50       1.0  T
   3    -13.3210533 -0.175267E-02  0.578E-01    5.76       1.0  T
   4    -13.3211757 -0.122331E-03  0.318E-01    5.76       1.0  T
   5    -13.3212482 -0.725432E-04  0.129E-01    5.79       1.0  T
   6    -13.3212830 -0.347469E-04  0.358E-02    5.81       1.1  T
   7    -13.3212858 -0.282802E-05  0.695E-03    5.83       5.9  T
   8    -13.3212858 -0.773036E-08  0.402E-04    5.83     101.7  T
   9    -13.3212858 -0.210816E-09  0.190E-04    5.83     214.8  T
     SCC iter.                  ...        0 min,  0.001 sec
     gradient                   ...        0 min,  0.000 sec
 * total energy  :   -13.0073369 Eh     change       -0.7173036E+00 Eh
   gradient norm :     2.4067361 Eh/α   predicted    -0.1942608E+01 ( 170.82%)
   displ. norm   :     0.1998971 α      lambda       -0.4757659E+00
   maximum displ.:     0.1942635 α      in ANC's #12, #11, #3, ...

........................................................................
.............................. CYCLE    3 ..............................
........................................................................
   1    -13.3129869 -0.133130E+02  0.725E-01    4.49       0.0  T
   2    -13.3137053 -0.718479E-03  0.365E-01    4.60       1.0  T
   3    -13.3138263 -0.120922E-03  0.147E-01    4.74       1.0  T
   4    -13.3138429 -0.166281E-04  0.819E-02    4.74       1.0  T
   5    -13.3138470 -0.415353E-05  0.266E-02    4.74       1.5  T
   6    -13.3138483 -0.121250E-05  0.140E-02    4.73       2.9  T
   7    -13.3138488 -0.524621E-06  0.354E-03    4.73      11.5  T
   8    -13.3138488 -0.261343E-07  0.200E-04    4.73     204.6  T
   9    -13.3138488 -0.675549E-11  0.115E-04    4.73     354.5  T
     SCC iter.                  ...        0 min,  0.001 sec
     gradient                   ...        0 min,  0.000 sec
 * total energy  :   -13.2537726 Eh     change       -0.2464357E+00 Eh
   gradient norm :     0.0904215 Eh/α   predicted    -0.2473884E+00 (   0.39%)
   displ. norm   :     0.0532499 α      lambda       -0.1335031E-02
   maximum displ.:     0.0521694 α      in ANC's #3, #11, #12, ...

........................................................................
.............................. CYCLE    4 ..............................
........................................................................
   1    -13.3120392 -0.133120E+02  0.102E-01    4.73       0.0  T
   2    -13.3120406 -0.136635E-05  0.605E-02    4.73       1.0  T
   3    -13.3120408 -0.275467E-06  0.106E-02    4.75       3.9  T
   4    -13.3120410 -0.200305E-06  0.590E-03    4.74       6.9  T
   5    -13.3120411 -0.422706E-07  0.323E-03    4.74      12.7  T
   6    -13.3120411 -0.227624E-07  0.120E-03    4.74      34.1  T
   7    -13.3120411 -0.222037E-08  0.349E-04    4.74     117.1  T
   8    -13.3120411 -0.143965E-09  0.447E-05    4.74     913.7  T
     SCC iter.                  ...        0 min,  0.001 sec
     gradient                   ...        0 min,  0.000 sec
 * total energy  :   -13.2545371 Eh     change       -0.7645406E-03 Eh
   gradient norm :     0.0052692 Eh/α   predicted    -0.6694103E-03 ( -12.44%)
   displ. norm   :     0.0307800 α      lambda       -0.1249078E-03
   maximum displ.:     0.0271319 α      in ANC's #3, #1, #2, ...

........................................................................
.............................. CYCLE    5 ..............................
........................................................................
   1    -13.3119519 -0.133120E+02  0.606E-02    4.74       0.0  T
   2    -13.3119521 -0.186397E-06  0.355E-02    4.75       1.1  T
   3    -13.3119521  0.628065E-08  0.460E-03    4.74       8.9  T
   4    -13.3119522 -0.592137E-07  0.123E-03    4.75      33.3  T
   5    -13.3119522 -0.648614E-09  0.309E-04    4.75     132.0  T
   6    -13.3119522 -0.117405E-09  0.212E-04    4.75     192.9  T
     SCC iter.                  ...        0 min,  0.001 sec
     gradient                   ...        0 min,  0.000 sec
 * total energy  :   -13.2546186 Eh     change       -0.8149183E-04 Eh
   gradient norm :     0.0075118 Eh/α   predicted    -0.6251468E-04 ( -23.29%)
   displ. norm   :     0.0820359 α      lambda       -0.1264756E-03
   maximum displ.:     0.0658638 α      in ANC's #1, #3, #2, ...

........................................................................
.............................. CYCLE    6 ..............................
........................................................................
   1    -13.3122004 -0.133122E+02  0.144E-01    4.74       0.0  T
   2    -13.3122014 -0.102167E-05  0.841E-02    4.75       1.0  T
   3    -13.3122014  0.441807E-07  0.109E-02    4.74       3.8  T
   4    -13.3122017 -0.337268E-06  0.365E-03    4.75      11.2  T
   5    -13.3122017 -0.152754E-07  0.145E-03    4.75      28.2  T
   6    -13.3122017 -0.340811E-08  0.677E-04    4.75      60.3  T
   7    -13.3122017 -0.783702E-09  0.192E-04    4.75     212.9  T
     SCC iter.                  ...        0 min,  0.001 sec
     gradient                   ...        0 min,  0.000 sec
 * total energy  :   -13.2545215 Eh     change        0.9706836E-04 Eh
   gradient norm :     0.0114086 Eh/α   predicted    -0.6366359E-04 (-165.59%)
   displ. norm   :     0.0661583 α      lambda       -0.2725880E-03
   maximum displ.:     0.0593090 α      in ANC's #1, #2, #3, ...

........................................................................
.............................. CYCLE    7 ..............................
........................................................................
   1    -13.3128273 -0.133128E+02  0.111E-01    4.75       0.0  T
   2    -13.3128275 -0.189993E-06  0.651E-02    4.75       1.0  T
   3    -13.3128276 -0.119265E-06  0.357E-03    4.75      11.4  T
   4    -13.3128276 -0.114619E-07  0.202E-03    4.75      20.2  T
   5    -13.3128276 -0.654417E-08  0.112E-03    4.75      36.5  T
   6    -13.3128276 -0.209256E-08  0.427E-04    4.75      95.7  T
   7    -13.3128276 -0.278314E-09  0.115E-04    4.75     354.2  T
     SCC iter.                  ...        0 min,  0.001 sec
     gradient                   ...        0 min,  0.000 sec
 * total energy  :   -13.2546553 Eh     change       -0.1337637E-03 Eh
   gradient norm :     0.0014760 Eh/α   predicted    -0.1368897E-03 (   2.34%)
   displ. norm   :     0.0221259 α      lambda       -0.4228489E-05
   maximum displ.:     0.0179256 α      in ANC's #2, #1, #3, ...

........................................................................
.............................. CYCLE    8 ..............................
........................................................................
   1    -13.3130448 -0.133130E+02  0.369E-02    4.75       0.0  T
   2    -13.3130448 -0.210957E-07  0.216E-02    4.75       1.9  T
   3    -13.3130448 -0.130602E-07  0.119E-03    4.75      34.2  T
   4    -13.3130448 -0.115336E-08  0.618E-04    4.75      66.0  T
   5    -13.3130448 -0.608946E-09  0.381E-04    4.75     107.1  T
     SCC iter.                  ...        0 min,  0.001 sec
     gradient                   ...        0 min,  0.000 sec
 * total energy  :   -13.2546464 Eh     change        0.8885088E-05 Eh
   gradient norm :     0.0029205 Eh/α   predicted    -0.2115274E-05 (-123.81%)
   displ. norm   :     0.0136677 α      lambda       -0.1491875E-04
   maximum displ.:     0.0128310 α      in ANC's #2, #1, #3, ...

........................................................................
.............................. CYCLE    9 ..............................
........................................................................
   1    -13.3131317 -0.133131E+02  0.232E-02    4.75       0.0  T
   2    -13.3131317 -0.826911E-08  0.136E-02    4.75       3.0  T
   3    -13.3131317 -0.496150E-08  0.739E-04    4.75      55.2  T
   4    -13.3131317 -0.362693E-09  0.538E-04    4.75      75.8  T
     SCC iter.                  ...        0 min,  0.001 sec
     gradient                   ...        0 min,  0.000 sec
 * total energy  :   -13.2546555 Eh     change       -0.9117255E-05 Eh
   gradient norm :     0.0010586 Eh/α   predicted    -0.7460743E-05 ( -18.17%)
   displ. norm   :     0.0111744 α      lambda       -0.3509559E-05
   maximum displ.:     0.0071971 α      in ANC's #1, #3, #2, ...

........................................................................
.............................. CYCLE   10 ..............................
........................................................................
   1    -13.3129894 -0.133130E+02  0.208E-02    4.75       0.0  T
   2    -13.3129894 -0.123878E-07  0.122E-02    4.75       3.3  T
   3    -13.3129894 -0.285895E-08  0.104E-03    4.75      39.2  T
   4    -13.3129894 -0.267399E-08  0.586E-04    4.75      69.7  T
   5    -13.3129894 -0.357254E-09  0.223E-04    4.75     182.8  T
     SCC iter.                  ...        0 min,  0.001 sec
     gradient                   ...        0 min,  0.000 sec
 * total energy  :   -13.2546559 Eh     change       -0.3144356E-06 Eh
   gradient norm :     0.0008627 Eh/α   predicted    -0.1755520E-05 ( 458.31%)
   displ. norm   :     0.0054337 α      lambda       -0.1636889E-05
   maximum displ.:     0.0040820 α      in ANC's #3, #1, #2, ...

   *** GEOMETRY OPTIMIZATION CONVERGED AFTER 10 ITERATIONS ***

------------------------------------------------------------------------
 total energy gain   :        -0.9646225 Eh     -605.3098 kcal/mol
 total RMSD          :         0.1758880 a0        0.0931 Å
 total power (kW/mol):      -253.2616110 (step)********** (real)
------------------------------------------------------------------------

 ANCopt (total)                0 d,  0 h,  0 min,  0.025 sec
 optimizer setup                ...        0 min,  0.000 sec (  0.400%)
 model hessian                  ...        0 min,  0.001 sec (  4.316%)
 ANC generation                 ...        0 min,  0.000 sec (  0.581%)
 coordinate transformation      ...        0 min,  0.000 sec (  0.091%)
 single point calculation       ...        0 min,  0.022 sec ( 89.360%)
 optimization log               ...        0 min,  0.000 sec (  1.591%)
 hessian update                 ...        0 min,  0.000 sec (  0.155%)
 rational function              ...        0 min,  0.000 sec (  1.791%)

================
 final structure:
================
6
 xtb: 6.3.3 (71d3805)
C         4.41096181725144   -0.03624405185960    0.00735348353173
Cl        6.81411330434760    0.07657357720578   -0.00895394564347
H         4.56587672530741   -0.57508802331027   -0.90669328829841
H         4.58200579972139   -0.54718953364977    0.93473638500549
H         4.49653041624349    1.03206174028968   -0.00976384068218
F         2.68659193712867   -0.11852370867582    0.02670120608684

 Bond Distances (Angstroems)
 ---------------------------
C1-H3=1.0723         C1-H4=1.0725         C1-H5=1.0719         C1-F6=1.7264         H3-C1=1.0723         H4-C1=1.0725         
H5-C1=1.0719         F6-C1=1.7264         
 C  H  Rav=1.0722 sigma=0.0003  Rmin=1.0719  Rmax=1.0725     3
 F  C  Rav=1.7264 sigma=0.0000  Rmin=1.7264  Rmax=1.7264     1

 selected bond angles (degree)
 --------------------
H4-C1-H3=118.33                H5-C1-H3=118.40                H5-C1-H4=118.42                F6-C1-H3= 97.46                
F6-C1-H4= 97.29                F6-C1-H5= 97.32                

 selected dihedral angles (degree)
 ---------------------------------


 CMA Distance (Angstroems)
 ---------------------------
R(CMA):  3.4241
           -------------------------------------------------
          |                Final Singlepoint                |
           -------------------------------------------------

          ...................................................
          :                      SETUP                      :
          :.................................................:
          :  # basis functions                  21          :
          :  # atomic orbitals                  20          :
          :  # shells                           10          :
          :  # electrons                        22          :
          :  max. iterations                   250          :
          :  Hamiltonian                  GFN2-xTB          :
          :  restarted?                      false          :
          :  GBSA solvation                   true          :
          :  PC potential                    false          :
          :  electronic temp.          300.0000000     K    :
          :  accuracy                    1.0000000          :
          :  -> integral cutoff          0.2500000E+02      :
          :  -> integral neglect         0.1000000E-07      :
          :  -> SCF convergence          0.1000000E-05 Eh   :
          :  -> wf. convergence          0.1000000E-03 e    :
          :  Broyden damping             0.4000000          :
          ...................................................

 iter      E             dE          RMSdq      gap      omega  full diag
   1    -13.3129894 -0.133130E+02  0.454E-05    4.75       0.0  T
   2    -13.3129894 -0.667910E-12  0.314E-05    4.75    1298.2  T
   3    -13.3129894 -0.849099E-12  0.128E-05    4.75    3182.7  T

   *** convergence criteria satisfied after 3 iterations ***

         #    Occupation            Energy/Eh            Energy/eV
      -------------------------------------------------------------
         1        2.0000           -0.9963249             -27.1114
       ...           ...                  ...                  ...
         5        2.0000           -0.5010880             -13.6353
         6        2.0000           -0.4782813             -13.0147
         7        2.0000           -0.4325345             -11.7699
         8        2.0000           -0.4325233             -11.7696
         9        2.0000           -0.3867337             -10.5236
        10        2.0000           -0.3867273             -10.5234
        11        2.0000           -0.3858567             -10.4997 (HOMO)
        12                         -0.2113572              -5.7513 (LUMO)
        13                          0.1095407               2.9808
        14                          0.1204512               3.2776
        15                          0.1204675               3.2781
        16                          0.1217149               3.3120
       ...                                ...                  ...
        20                          0.2650316               7.2119
      -------------------------------------------------------------
                  HL-Gap            0.1744996 Eh            4.7484 eV
             Fermi-level           -0.2986070 Eh           -8.1255 eV

 SCC (total)                   0 d,  0 h,  0 min,  0.002 sec
 SCC setup                      ...        0 min,  0.000 sec ( 11.834%)
 Dispersion                     ...        0 min,  0.000 sec (  0.661%)
 classical contributions        ...        0 min,  0.000 sec (  0.229%)
 integral evaluation            ...        0 min,  0.001 sec ( 29.212%)
 iterations                     ...        0 min,  0.000 sec ( 26.253%)
 molecular gradient             ...        0 min,  0.000 sec ( 25.970%)
 printout                       ...        0 min,  0.000 sec (  5.441%)

         :::::::::::::::::::::::::::::::::::::::::::::::::::::
         ::                     SUMMARY                     ::
         :::::::::::::::::::::::::::::::::::::::::::::::::::::
         :: total energy             -13.254655858983 Eh    ::
         :: total w/o Gsasa/hb       -13.254642074222 Eh    ::
         :: gradient norm              0.000863354156 Eh/a0 ::
         :: HOMO-LUMO gap              4.748374467520 eV    ::
         ::.................................................::
         :: SCC energy               -13.312989445286 Eh    ::
         :: -> isotropic ES            0.168780139838 Eh    ::
         :: -> anisotropic ES         -0.001240668976 Eh    ::
         :: -> anisotropic XC          0.004013670203 Eh    ::
         :: -> dispersion             -0.001910712327 Eh    ::
         :: -> Gsolv                  -0.091087438927 Eh    ::
         ::    -> Gborn               -0.091073654166 Eh    ::
         ::    -> Gsasa                0.000496603233 Eh    ::
         ::    -> Ghb                 -0.002367831120 Eh    ::
         ::    -> Gshift               0.001857443127 Eh    ::
         :: repulsion energy           0.058184545653 Eh    ::
         :: add. restraining           0.000149126222 Eh    ::
         :: total charge              -1.000000000000 e     ::
         :::::::::::::::::::::::::::::::::::::::::::::::::::::

           -------------------------------------------------
          |                Property Printout                |
           -------------------------------------------------

    * Orbital Energies and Occupations

         #    Occupation            Energy/Eh            Energy/eV
      -------------------------------------------------------------
         1        2.0000           -0.9963249             -27.1114
         2        2.0000           -0.7341631             -19.9776
         3        2.0000           -0.5906438             -16.0722
         4        2.0000           -0.5011695             -13.6375
         5        2.0000           -0.5010880             -13.6353
         6        2.0000           -0.4782813             -13.0147
         7        2.0000           -0.4325345             -11.7699
         8        2.0000           -0.4325233             -11.7696
         9        2.0000           -0.3867337             -10.5236
        10        2.0000           -0.3867273             -10.5234
        11        2.0000           -0.3858567             -10.4997 (HOMO)
        12                         -0.2113572              -5.7513 (LUMO)
        13                          0.1095407               2.9808
        14                          0.1204512               3.2776
        15                          0.1204675               3.2781
        16                          0.1217149               3.3120
        17                          0.1217160               3.3121
        18                          0.1338267               3.6416
        19                          0.2639243               7.1817
        20                          0.2650316               7.2119
      -------------------------------------------------------------
                  HL-Gap            0.1744996 Eh            4.7484 eV
             Fermi-level           -0.2986070 Eh           -8.1255 eV

     #   Z          covCN         q      C6AA      α(0)
     1   6 C        3.691     0.050    19.909     6.385
     2  17 Cl       0.310    -0.868   122.876    16.883
     3   1 H        0.926     0.099     1.794     2.094
     4   1 H        0.926     0.099     1.793     2.094
     5   1 H        0.926     0.099     1.793     2.094
     6   9 F        0.602    -0.480    14.617     4.509

 Mol. C6AA /au·bohr⁶  :        541.676318
 Mol. C8AA /au·bohr⁸  :      15598.097946
 Mol. α(0) /au        :         34.060066


Wiberg/Mayer (AO) data.
largest (>0.10) Wiberg bond orders for each atom

 ---------------------------------------------------------------------------
     #   Z sym  total        # sym  WBO       # sym  WBO       # sym  WBO
 ---------------------------------------------------------------------------
     1   6 C    3.837 --     5 H    0.987     3 H    0.987     4 H    0.987
                             6 F    0.697     2 Cl   0.179
     2  17 Cl   0.247 --     1 C    0.179
     3   1 H    0.990 --     1 C    0.987
     4   1 H    0.990 --     1 C    0.987
     5   1 H    0.990 --     1 C    0.987
     6   9 F    0.773 --     1 C    0.697
 ---------------------------------------------------------------------------

Topologies differ in total number of bonds
Writing topology from bond orders to xtbtopo.mol

molecular dipole:
                 x           y           z       tot (Debye)
 q only:      -10.636      -0.038      -0.005
   full:      -10.559      -0.035      -0.006      26.839
molecular quadrupole (traceless):
                xx          xy          yy          xz          yz          zz
 q only:     -131.385      -1.910      65.662       0.162       0.011      65.723
  q+dip:     -132.461      -2.042      66.197       0.186       0.013      66.265
   full:     -131.441      -1.967      65.688       0.172       0.012      65.753

           -------------------------------------------------
          |                Geometry Summary                 |
           -------------------------------------------------

      molecular mass/u    :       69.4858989
   center of mass at/Å    :        5.1715953      -0.0009103       0.0042682
  moments of inertia/u·Å² :        0.3419679E+01   0.2233096E+03   0.2233105E+03
rotational constants/cm⁻¹ :        0.4929594E+01   0.7548996E-01   0.7548966E-01

 * 3 selected distances

     #   Z          #   Z                                           value/Å
     1   6 C        3   1 H                                       1.0723026
     1   6 C        4   1 H                                       1.0725485 (max)
     1   6 C        5   1 H                                       1.0718639 (min)

 * 1 distinct bonds (by element types)

   Z      Z             #   av. dist./Å        max./Å        min./Å
   1 H    6 C           3     1.0722384     1.0725485     1.0718639


optimized geometry written to: xtbopt.xyz


           -------------------------------------------------
          | TOTAL ENERGY              -13.254655858983 Eh   |
          | GRADIENT NORM               0.000863354156 Eh/α |
          | HOMO-LUMO GAP               4.748374467520 eV   |
           -------------------------------------------------

------------------------------------------------------------------------
 * finished run on 2024/05/31 at 17:48:55.276     
------------------------------------------------------------------------
 total:
 * wall-time:     0 d,  0 h,  0 min,  0.080 sec
 *  cpu-time:     0 d,  0 h,  0 min,  0.419 sec
 * ratio c/w:     5.264 speedup
 SCF:
 * wall-time:     0 d,  0 h,  0 min,  0.005 sec
 *  cpu-time:     0 d,  0 h,  0 min,  0.038 sec
 * ratio c/w:     6.979 speedup
 ANC optimizer:
 * wall-time:     0 d,  0 h,  0 min,  0.027 sec
 *  cpu-time:     0 d,  0 h,  0 min,  0.188 sec
 * ratio c/w:     6.984 speedup

