14
16ts_reopt.out	Energy: -103680.6316337
N         -2.65461       -0.61622        0.02677
B         -0.33968        2.04084       -0.01346
B          1.19876       -0.96825       -0.13261
N          2.38039       -0.27018        0.06690
H         -1.98734       -1.37685       -0.07496
H         -3.40334       -0.79929       -0.63737
H         -3.06320       -0.71598        0.95309
H          0.73437        2.13927       -0.53138
H         -1.32008        2.19902       -0.66631
H         -0.41256        1.89287        1.16691
H          1.20100       -2.16419       -0.09976
H          0.18678       -0.35631       -0.33430
H          2.42036        0.73904        0.05439
H          3.26818       -0.71573        0.24439
