 Entering Gaussian System, Link 0=/opt/gaussian/g16/C01/g16/g16
 Input=TS_dOr2Us_ll_ad_0-5_0-1_optts_conf_g16.com
 Output=TS_dOr2Us_ll_ad_0-5_0-1_optts_conf_g16.log
 Initial command:
 /opt/gaussian/g16/C01/g16/l1.exe "/home/thijs/scratch/Gau-2620994.inp" -scrdir="/home/thijs/scratch/"
 Entering Link 1 = /opt/gaussian/g16/C01/g16/l1.exe PID=   2620995.
  
 Copyright (c) 1988-2019, Gaussian, Inc.  All Rights Reserved.
  
 This is part of the Gaussian(R) 16 program.  It is based on
 the Gaussian(R) 09 system (copyright 2009, Gaussian, Inc.),
 the Gaussian(R) 03 system (copyright 2003, Gaussian, Inc.),
 the Gaussian(R) 98 system (copyright 1998, Gaussian, Inc.),
 the Gaussian(R) 94 system (copyright 1995, Gaussian, Inc.),
 the Gaussian 92(TM) system (copyright 1992, Gaussian, Inc.),
 the Gaussian 90(TM) system (copyright 1990, Gaussian, Inc.),
 the Gaussian 88(TM) system (copyright 1988, Gaussian, Inc.),
 the Gaussian 86(TM) system (copyright 1986, Carnegie Mellon
 University), and the Gaussian 82(TM) system (copyright 1983,
 Carnegie Mellon University). Gaussian is a federally registered
 trademark of Gaussian, Inc.
  
 This software contains proprietary and confidential information,
 including trade secrets, belonging to Gaussian, Inc.
  
 This software is provided under written license and may be
 used, copied, transmitted, or stored only in accord with that
 written license.
  
 The following legend is applicable only to US Government
 contracts under FAR:
  
                    RESTRICTED RIGHTS LEGEND
  
 Use, reproduction and disclosure by the US Government is
 subject to restrictions as set forth in subparagraphs (a)
 and (c) of the Commercial Computer Software - Restricted
 Rights clause in FAR 52.227-19.
  
 Gaussian, Inc.
 340 Quinnipiac St., Bldg. 40, Wallingford CT 06492
  
  
 ---------------------------------------------------------------
 Warning -- This program may not be used in any manner that
 competes with the business of Gaussian, Inc. or will provide
 assistance to any competitor of Gaussian, Inc.  The licensee
 of this program is prohibited from giving any competitor of
 Gaussian, Inc. access to this program.  By using this program,
 the user acknowledges that Gaussian, Inc. is engaged in the
 business of creating and licensing software in the field of
 computational chemistry and represents and warrants to the
 licensee that it is not a competitor of Gaussian, Inc. and that
 it will not use this program in any manner prohibited above.
 ---------------------------------------------------------------
  

 Cite this work as:
 Gaussian 16, Revision C.01,
 M. J. Frisch, G. W. Trucks, H. B. Schlegel, G. E. Scuseria, 
 M. A. Robb, J. R. Cheeseman, G. Scalmani, V. Barone, 
 G. A. Petersson, H. Nakatsuji, X. Li, M. Caricato, A. V. Marenich, 
 J. Bloino, B. G. Janesko, R. Gomperts, B. Mennucci, H. P. Hratchian, 
 J. V. Ortiz, A. F. Izmaylov, J. L. Sonnenberg, D. Williams-Young, 
 F. Ding, F. Lipparini, F. Egidi, J. Goings, B. Peng, A. Petrone, 
 T. Henderson, D. Ranasinghe, V. G. Zakrzewski, J. Gao, N. Rega, 
 G. Zheng, W. Liang, M. Hada, M. Ehara, K. Toyota, R. Fukuda, 
 J. Hasegawa, M. Ishida, T. Nakajima, Y. Honda, O. Kitao, H. Nakai, 
 T. Vreven, K. Throssell, J. A. Montgomery, Jr., J. E. Peralta, 
 F. Ogliaro, M. J. Bearpark, J. J. Heyd, E. N. Brothers, K. N. Kudin, 
 V. N. Staroverov, T. A. Keith, R. Kobayashi, J. Normand, 
 K. Raghavachari, A. P. Rendell, J. C. Burant, S. S. Iyengar, 
 J. Tomasi, M. Cossi, J. M. Millam, M. Klene, C. Adamo, R. Cammi, 
 J. W. Ochterski, R. L. Martin, K. Morokuma, O. Farkas, 
 J. B. Foresman, and D. J. Fox, Gaussian, Inc., Wallingford CT, 2019.
 
 ******************************************
 Gaussian 16:  ES64L-G16RevC.01  3-Jul-2019
                31-May-2024 
 ******************************************
 %mem=16000MB
 %nprocshared=4
 Will use up to    4 processors via shared memory.
 ----------------------------------------------------------------------
 # PBE1PBE Def2SVP Freq EmpiricalDispersion=GD3BJ Opt=(TS, CalcFC, NoEi
 genTest, MaxCycles=100, MaxStep=10, NoTrustUpdate, RecalcFC=30) Geom=M
 odRedun NoSymm scrf=(smd,solvent=Water)
 ----------------------------------------------------------------------
 1/5=1,6=100,8=10,9=1,10=4,11=1,18=120,26=3,38=1,71=30/1,3;
 2/9=110,12=2,15=1,17=6,18=5,40=1/2;
 3/5=43,7=101,11=2,25=1,30=1,70=32201,71=2,72=1,74=-13,124=41,140=1/1,2,3;
 4//1;
 5/5=2,38=5,53=1/2;
 8/6=4,10=90,11=11/1;
 11/6=1,8=1,9=11,15=111,16=1,31=1/1,2,10;
 10/6=1,13=1,31=1/2;
 6/7=2,8=2,9=2,10=2,28=1/1;
 7/10=1,25=1,30=1/1,2,3,16;
 1/5=1,6=100,8=10,9=1,10=4,11=1,18=20,26=3,71=30/3(3);
 2/9=110,15=1/2;
 7/9=1,25=1,30=1,44=-1/16;
 99//99;
 2/9=110,15=1/2;
 3/5=43,7=101,11=2,25=1,30=1,70=32205,71=2,72=1,74=-13,124=41,140=1/1,2,3;
 4/5=5,16=3,69=1/1;
 5/5=2,38=5,53=1/2;
 8/6=4,10=90,11=11/1;
 11/6=1,8=1,9=11,15=111,16=1,31=1/1,2,10;
 10/6=1,13=1,31=1/2;
 7/10=1,25=1,30=1/1,2,3,16;
 1/5=1,6=100,8=10,9=1,11=1,18=20,26=3,71=30/3(-8);
 2/9=110,15=1/2;
 6/7=2,8=2,9=2,10=2,19=2,28=1/1;
 7/9=1,25=1,30=1,44=-1/16;
 99/9=1/99;
 --------------------------------------
 TS_dOr2Us_ll_ad_0-5_0-1_optts_conf_g16
 --------------------------------------
 Symbolic Z-matrix:
 Charge = -1 Multiplicity = 1
 C                     5.39023   0.66593  -1.05054 
 Cl                    6.99844  -0.38339  -1.97718 
 H                     5.05844   1.16141  -1.95594 
 H                     4.86965  -0.22374  -0.71423 
 H                     6.01471   1.2089   -0.35017 
 F                     3.88514   1.64894  -0.18284 
 
 Add virtual bond connecting atoms F6         and C1         Dist= 3.77D+00.
 The following ModRedundant input section has been read:
 B       1       2 B                                                           
 B       1       6 B                                                           
 

 GradGradGradGradGradGradGradGradGradGradGradGradGradGradGradGradGradGrad
 Berny optimization.
 Initialization pass.
                           ----------------------------
                           !    Initial Parameters    !
                           ! (Angstroms and Degrees)  !
 --------------------------                            --------------------------
 ! Name  Definition              Value          Derivative Info.                !
 --------------------------------------------------------------------------------
 ! R1    R(1,2)                  2.1322         calculate D2E/DX2 analytically  !
 ! R2    R(1,3)                  1.0841         calculate D2E/DX2 analytically  !
 ! R3    R(1,4)                  1.0843         calculate D2E/DX2 analytically  !
 ! R4    R(1,5)                  1.0841         calculate D2E/DX2 analytically  !
 ! R5    R(1,6)                  1.9961         calculate D2E/DX2 analytically  !
 ! A1    A(2,1,3)               95.325          calculate D2E/DX2 analytically  !
 ! A2    A(2,1,4)               95.3435         calculate D2E/DX2 analytically  !
 ! A3    A(2,1,5)               95.323          calculate D2E/DX2 analytically  !
 ! A4    A(3,1,4)              119.1504         calculate D2E/DX2 analytically  !
 ! A5    A(3,1,5)              119.1383         calculate D2E/DX2 analytically  !
 ! A6    A(3,1,6)               84.6756         calculate D2E/DX2 analytically  !
 ! A7    A(4,1,5)              119.1527         calculate D2E/DX2 analytically  !
 ! A8    A(4,1,6)               84.6769         calculate D2E/DX2 analytically  !
 ! A9    A(5,1,6)               84.6559         calculate D2E/DX2 analytically  !
 ! A10   L(2,1,6,3,-1)         180.0006         calculate D2E/DX2 analytically  !
 ! A11   L(2,1,6,3,-2)         180.0241         calculate D2E/DX2 analytically  !
 ! D1    D(2,1,4,3)            -99.1428         calculate D2E/DX2 analytically  !
 ! D2    D(2,1,5,3)             99.1287         calculate D2E/DX2 analytically  !
 ! D3    D(2,1,5,4)            -99.1528         calculate D2E/DX2 analytically  !
 ! D4    D(3,1,5,4)            161.7185         calculate D2E/DX2 analytically  !
 ! D5    D(3,1,6,4)            120.0011         calculate D2E/DX2 analytically  !
 ! D6    D(3,1,6,5)           -119.9922         calculate D2E/DX2 analytically  !
 ! D7    D(4,1,6,5)            120.0067         calculate D2E/DX2 analytically  !
 --------------------------------------------------------------------------------
 Trust Radius=1.00D-01 FncErr=1.00D-07 GrdErr=1.00D-06 EigMax=2.50D+02 EigMin=1.00D-04
 Number of steps in this run=    100 maximum allowed number of steps=    100.
 Search for a saddle point of order  1.
 GradGradGradGradGradGradGradGradGradGradGradGradGradGradGradGradGradGrad

                          Input orientation:                          
 ---------------------------------------------------------------------
 Center     Atomic      Atomic             Coordinates (Angstroms)
 Number     Number       Type             X           Y           Z
 ---------------------------------------------------------------------
      1          6           0        5.390229    0.665934   -1.050538
      2         17           0        6.998436   -0.383388   -1.977179
      3          1           0        5.058437    1.161409   -1.955939
      4          1           0        4.869647   -0.223736   -0.714229
      5          1           0        6.014711    1.208900   -0.350170
      6          9           0        3.885140    1.648941   -0.182835
 ---------------------------------------------------------------------
                    Distance matrix (angstroms):
                    1          2          3          4          5
     1  C    0.000000
     2  Cl   2.132151   0.000000
     3  H    1.084127   2.480009   0.000000
     4  H    1.084261   2.480378   1.869789   0.000000
     5  H    1.084115   2.479971   1.869548   1.869801   0.000000
     6  F    1.996122   4.128274   2.181332   2.181411   2.180988
                    6
     6  F    0.000000
 Symmetry turned off by external request.
 Stoichiometry    CH3ClF(1-)
 Framework group  C1[X(CH3ClF)]
 Deg. of freedom    12
 Full point group                 C1      NOp   1
 Rotational constants (GHZ):         143.4438691           2.3254034           2.3253967
 Standard basis: def2SVP (5D, 7F)
    61 basis functions,   108 primitive gaussians,    64 cartesian basis functions
    18 alpha electrons       18 beta electrons
       nuclear repulsion energy        86.3097857088 Hartrees.
 NAtoms=    6 NActive=    6 NUniq=    6 SFac= 1.00D+00 NAtFMM=   60 NAOKFM=F Big=F
 Integral buffers will be    131072 words long.
 Raffenetti 2 integral format.
 Two-electron integral symmetry is turned off.
 Nuclear repulsion after empirical dispersion term =       86.3073804006 Hartrees.
 Force inversion solution in PCM.
 ------------------------------------------------------------------------------
 Polarizable Continuum Model (PCM)
 =================================
 Model                : PCM.
 Atomic radii         : SMD-Coulomb.
 Polarization charges : Total charges.
 Charge compensation  : None.
 Solution method      : Matrix inversion.
 Cavity type          : VdW (van der Waals Surface) (Alpha=1.000).
 Cavity algorithm     : GePol (No added spheres)
                        Default sphere list used, NSphG=    6.
                        Lebedev-Laikov grids with approx.  5.0 points / Ang**2.
                        Smoothing algorithm: York/Karplus (Gamma=1.0000).
                        Polarization charges: spherical gaussians, with
                                              point-specific exponents (IZeta= 3).
                        Self-potential: point-specific (ISelfS= 7).
                        Self-field    : sphere-specific E.n sum rule (ISelfD= 2).
 1st derivatives      : Analytical E(r).r(x)/FMM algorithm (CHGder, D1EAlg=3).
                        Cavity 1st derivative terms included.
 2nd derivatives      : Analytical E(r).r(xy)/FMM algorithm (CHGder, D2EAlg=3).
                        Cavity 2nd derivative terms included.
 Solvent              : Water, Eps=  78.355300 Eps(inf)=   1.777849
 ------------------------------------------------------------------------------
 Spheres list:
 ISph  on   Nord     Re0    Alpha      Xe            Ye            Ze
    1   C      1    1.8500  1.000      5.390229      0.665934     -1.050538
    2  Cl      2    2.3800  1.000      6.998436     -0.383388     -1.977179
    3   H      3    1.2000  1.000      5.058437      1.161409     -1.955939
    4   H      4    1.2000  1.000      4.869647     -0.223736     -0.714229
    5   H      5    1.2000  1.000      6.014711      1.208900     -0.350170
    6   F      6    1.7300  1.000      3.885140      1.648941     -0.182835
 ------------------------------------------------------------------------------
 ------------------------------------------------------------------------------
 Atomic radii for non-electrostatic terms: SMD-CDS.
 ------------------------------------------------------------------------------
 Nuclear repulsion after PCM non-electrostatic terms =       86.3118464399 Hartrees.
 One-electron integrals computed using PRISM.
   1 Symmetry operations used in ECPInt.
 ECPInt:  NShTT=     435 NPrTT=    1711 LenC2=     430 LenP2D=    1437.
 LDataN:  DoStor=T MaxTD1= 4 Len=   56
 NBasis=    61 RedAO= T EigKep=  1.27D-02  NBF=    61
 NBsUse=    61 1.00D-06 EigRej= -1.00D+00 NBFU=    61
 ExpMin= 1.22D-01 ExpMax= 1.04D+04 ExpMxC= 1.57D+03 IAcc=3 IRadAn=         5 AccDes= 0.00D+00
 Harris functional with IExCor= 1009 and IRadAn=       5 diagonalized for initial guess.
 HarFok:  IExCor= 1009 AccDes= 0.00D+00 IRadAn=         5 IDoV= 1 UseB2=F ITyADJ=14
 ICtDFT=  3500011 ScaDFX=  1.000000  1.000000  1.000000  1.000000
 FoFCou: FMM=F IPFlag=           0 FMFlag=      100000 FMFlg1=           0
         NFxFlg=           0 DoJE=T BraDBF=F KetDBF=T FulRan=T
         wScrn=  0.000000 ICntrl=       500 IOpCl=  0 I1Cent=   200000004 NGrid=           0
         NMat0=    1 NMatS0=      1 NMatT0=    0 NMatD0=    1 NMtDS0=    0 NMtDT0=    0
 Symmetry not used in FoFCou.
 Keep R1 ints in memory in canonical form, NReq=5346432.
 Requested convergence on RMS density matrix=1.00D-08 within 128 cycles.
 Requested convergence on MAX density matrix=1.00D-06.
 Requested convergence on             energy=1.00D-06.
 No special actions if energy rises.
 Inv3:  Mode=1 IEnd=     1678512.
 Iteration    1 A*A^-1 deviation from unit magnitude is 2.66D-15 for    735.
 Iteration    1 A*A^-1 deviation from orthogonality  is 1.59D-15 for    322     57.
 Iteration    1 A^-1*A deviation from unit magnitude is 2.44D-15 for    735.
 Iteration    1 A^-1*A deviation from orthogonality  is 8.27D-16 for    735    621.
 Error on total polarization charges =  0.00713
 SCF Done:  E(RPBE1PBE) =  -599.478550516     A.U. after   11 cycles
            NFock= 11  Conv=0.18D-08     -V/T= 2.0030
 SMD-CDS (non-electrostatic) energy       (kcal/mol) =       2.80
 (included in total energy above)
 DoSCS=F DFT=T ScalE2(SS,OS)=  1.000000  1.000000
 Range of M.O.s used for correlation:     1    61
 NBasis=    61 NAE=    18 NBE=    18 NFC=     0 NFV=     0
 NROrb=     61 NOA=    18 NOB=    18 NVA=    43 NVB=    43
   1 Symmetry operations used in ECPInt.
 ECPInt:  NShTT=     435 NPrTT=    1711 LenC2=     430 LenP2D=    1437.
 LDataN:  DoStor=T MaxTD1= 5 Len=  102
 Symmetrizing basis deriv contribution to polar:
 IMax=3 JMax=2 DiffMx= 0.00D+00
 G2DrvN: will do     7 centers at a time, making    1 passes.
 Calling FoFCou, ICntrl=  3107 FMM=F I1Cent=   0 AccDes= 0.00D+00.
 NEqPCM:  Using equilibrium solvation (IEInf=0, Eps=  78.3553, EpsInf=   1.7778)
 G2PCM: DoFxE=T DoFxN=T DoGrad=T DoDP/DQ/DG/TGxP=FFFF NFrqRd=   0 IEInf=0 SqF1=F DoCFld=F IF1Alg=4.
 End of G2Drv F.D. properties file   721 does not exist.
 End of G2Drv F.D. properties file   722 does not exist.
 End of G2Drv F.D. properties file   788 does not exist.
          IDoAtm=111111
 NEqPCM:  Using equilibrium solvation (IEInf=0, Eps=  78.3553, EpsInf=   1.7778)
          Differentiating once with respect to nuclear coordinates.
 Keep R1 ints in memory in canonical form, NReq=5338004.
          There are    21 degrees of freedom in the 1st order CPHF.  IDoFFX=6 NUNeed=     0.
     15 vectors produced by pass  0 Test12= 3.69D-15 4.76D-09 XBig12= 9.31D-02 1.67D-01.
 AX will form    15 AO Fock derivatives at one time.
     15 vectors produced by pass  1 Test12= 3.69D-15 4.76D-09 XBig12= 3.21D-03 1.70D-02.
     15 vectors produced by pass  2 Test12= 3.69D-15 4.76D-09 XBig12= 4.47D-05 1.56D-03.
     15 vectors produced by pass  3 Test12= 3.69D-15 4.76D-09 XBig12= 5.60D-07 2.09D-04.
     15 vectors produced by pass  4 Test12= 3.69D-15 4.76D-09 XBig12= 7.88D-09 2.42D-05.
     12 vectors produced by pass  5 Test12= 3.69D-15 4.76D-09 XBig12= 7.23D-12 8.66D-07.
      2 vectors produced by pass  6 Test12= 3.69D-15 4.76D-09 XBig12= 7.76D-15 4.58D-08.
 InvSVY:  IOpt=1 It=  1 EMax= 9.99D-16
 Solved reduced A of dimension    89 with    15 vectors.
 End of Minotr F.D. properties file   721 does not exist.
 End of Minotr F.D. properties file   722 does not exist.
 End of Minotr F.D. properties file   788 does not exist.

 **********************************************************************

            Population analysis using the SCF Density.

 **********************************************************************

 Alpha  occ. eigenvalues -- -101.57566 -24.56162 -10.26620  -9.42567  -7.16461
 Alpha  occ. eigenvalues --   -7.15879  -7.15879  -0.95761  -0.75203  -0.64711
 Alpha  occ. eigenvalues --   -0.42326  -0.42322  -0.32658  -0.24990  -0.24989
 Alpha  occ. eigenvalues --   -0.23490  -0.23489  -0.22068
 Alpha virt. eigenvalues --    0.05491   0.10921   0.16939   0.16941   0.47435
 Alpha virt. eigenvalues --    0.47442   0.55434   0.62370   0.70560   0.70562
 Alpha virt. eigenvalues --    0.73501   0.74668   0.87459   0.87461   0.89004
 Alpha virt. eigenvalues --    0.89005   0.94089   0.95300   0.95303   1.20776
 Alpha virt. eigenvalues --    1.20781   1.26760   1.27840   1.40131   1.40134
 Alpha virt. eigenvalues --    1.50450   1.68545   1.71859   1.71870   1.97673
 Alpha virt. eigenvalues --    2.17481   2.17486   2.24998   2.34015   2.34023
 Alpha virt. eigenvalues --    2.89151   2.93876   2.93893   3.27322   3.27323
 Alpha virt. eigenvalues --    3.28197   3.28198   3.36708
          Condensed to atoms (all electrons):
               1          2          3          4          5          6
     1  C    4.565471   0.104892   0.411940   0.411930   0.411931   0.078715
     2  Cl   0.104892  17.530607  -0.026426  -0.026417  -0.026444   0.001153
     3  H    0.411940  -0.026426   0.561845  -0.013417  -0.013423  -0.004726
     4  H    0.411930  -0.026417  -0.013417   0.561588  -0.013404  -0.004731
     5  H    0.411931  -0.026444  -0.013423  -0.013404   0.561911  -0.004712
     6  F    0.078715   0.001153  -0.004726  -0.004731  -0.004712   9.644857
 Mulliken charges:
               1
     1  C    0.015121
     2  Cl  -0.557363
     3  H    0.084207
     4  H    0.084451
     5  H    0.084142
     6  F   -0.710557
 Sum of Mulliken charges =  -1.00000
 Mulliken charges with hydrogens summed into heavy atoms:
               1
     1  C    0.267920
     2  Cl  -0.557363
     6  F   -0.710557
 APT charges:
               1
     1  C   -0.251500
     2  Cl  -0.684107
     3  H    0.215132
     4  H   -0.356366
     5  H    0.831637
     6  F   -0.754795
 Sum of APT charges =  -1.00000
 APT charges with hydrogens summed into heavy atoms:
               1
     1  C    0.438902
     2  Cl  -0.684107
     6  F   -0.754795
 Electronic spatial extent (au):  <R**2>=           4960.9650
 Charge=             -1.0000 electrons
 Dipole moment (field-independent basis, Debye):
    X=            -25.1497    Y=             -3.6863    Z=              4.6175  Tot=             25.8344
 Quadrupole moment (field-independent basis, Debye-Ang):
   XX=           -172.7451   YY=            -35.0669   ZZ=            -35.2327
   XY=             -9.2648   XZ=             33.0375   YZ=             -2.2412
 Traceless Quadrupole moment (field-independent basis, Debye-Ang):
   XX=            -91.7302   YY=             45.9480   ZZ=             45.7822
   XY=             -9.2648   XZ=             33.0375   YZ=             -2.2412
 Octapole moment (field-independent basis, Debye-Ang**2):
  XXX=          -1392.1936  YYY=            -40.9698  ZZZ=            124.0581  XYY=           -188.2381
  XXY=            -12.6050  XXZ=            272.1879  XZZ=           -220.7899  YZZ=             -2.8054
  YYZ=             36.4486  XYZ=            -16.0337
 Hexadecapole moment (field-independent basis, Debye-Ang**3):
 XXXX=         -11948.0036 YYYY=           -176.6832 ZZZZ=           -432.0971 XXXY=            112.7339
 XXXZ=           2384.5052 YYYX=           -131.8405 YYYZ=             -8.1132 ZZZX=            826.1355
 ZZZY=            -21.6405 XXYY=          -1108.8466 XXZZ=          -1499.6633 YYZZ=            -89.8386
 XXYZ=           -111.1055 YYXZ=            235.8166 ZZXY=             10.2114
 N-N= 8.631184643985D+01 E-N=-1.607126157127D+03  KE= 5.977028932574D+02
  Exact polarizability:       0.000       0.000       0.000       0.000       0.000       0.000
 Approx polarizability:      55.567     -21.548      36.617     -19.027      12.419      33.517
   1 Symmetry operations used in ECPInt.
 ECPInt:  NShTT=     435 NPrTT=    1711 LenC2=     430 LenP2D=    1437.
 LDataN:  DoStor=T MaxTD1= 6 Len=  172
 D2PCM: PCM CHGder 2nd derivatives, FixD1E=F FixD2E=F DoIter=F DoCFld=F I1PDM=0
 Calling FoFJK, ICntrl=    100127 FMM=F ISym2X=0 I1Cent= 0 IOpClX= 0 NMat=1 NMatS=1 NMatT=0.
 -------------------------------------------------------------------
 Center     Atomic                   Forces (Hartrees/Bohr)
 Number     Number              X              Y              Z
 -------------------------------------------------------------------
      1        6          -0.000178314    0.000119116    0.000111629
      2       17           0.000357866   -0.000226878   -0.000193897
      3        1           0.000011859   -0.000209003    0.000634638
      4        1           0.000127636    0.000699632   -0.000073255
      5        1          -0.000547365   -0.000212087   -0.000351668
      6        9           0.000228317   -0.000170780   -0.000127447
 -------------------------------------------------------------------
 Cartesian Forces:  Max     0.000699632 RMS     0.000316150
 FormGI is forming the generalized inverse of G from B-inverse, IUseBI=4.

 GradGradGradGradGradGradGradGradGradGradGradGradGradGradGradGradGradGrad
 Berny optimization.
 Internal  Forces:  Max     0.000658122 RMS     0.000268046
 Search for a saddle point.
 Step number   1 out of a maximum of  100
 All quantities printed in internal units (Hartrees-Bohrs-Radians)
 Swapping is turned off.
 Second derivative matrix not updated -- analytic derivatives used.
 ITU=  0
     Eigenvalues ---   -0.02003   0.03405   0.03697   0.03997   0.04597
     Eigenvalues ---    0.04678   0.04948   0.06702   0.08278   0.38232
     Eigenvalues ---    0.38928   0.38959
 Eigenvectors required to have negative eigenvalues:
                          R5        R1        D4        D3        D2
   1                    0.58458  -0.49425  -0.42643  -0.22202   0.20441
                          D1        A3        A9        A8        A2
   1                   -0.19408   0.14696  -0.13099  -0.12977   0.12514
 RFO step:  Lambda0=2.596891766D-06 Lambda=-1.02276309D-05.
 Linear search not attempted -- option 19 set.
 Iteration  1 RMS(Cart)=  0.00180325 RMS(Int)=  0.00000787
 Iteration  2 RMS(Cart)=  0.00000401 RMS(Int)=  0.00000670
 Iteration  3 RMS(Cart)=  0.00000000 RMS(Int)=  0.00000670
 Variable       Old X    -DE/DX   Delta X   Delta X   Delta X     New X
                                 (Linear)    (Quad)   (Total)
    R1        4.02918   0.00047   0.00000  -0.00005  -0.00005   4.02913
    R2        2.04870  -0.00063   0.00000  -0.00159  -0.00159   2.04712
    R3        2.04896  -0.00066   0.00000  -0.00171  -0.00171   2.04725
    R4        2.04868  -0.00065   0.00000  -0.00166  -0.00166   2.04702
    R5        3.77212  -0.00031   0.00000   0.00128   0.00128   3.77340
    A1        1.66374   0.00004   0.00000   0.00320   0.00321   1.66694
    A2        1.66406   0.00007   0.00000   0.00358   0.00358   1.66764
    A3        1.66370   0.00007   0.00000   0.00289   0.00290   1.66660
    A4        2.07957  -0.00001   0.00000  -0.00109  -0.00111   2.07846
    A5        2.07936  -0.00002   0.00000  -0.00099  -0.00101   2.07835
    A6        1.47787  -0.00002   0.00000  -0.00269  -0.00269   1.47518
    A7        2.07961  -0.00003   0.00000  -0.00099  -0.00101   2.07859
    A8        1.47789  -0.00010   0.00000  -0.00420  -0.00420   1.47369
    A9        1.47752  -0.00005   0.00000  -0.00279  -0.00280   1.47473
   A10        3.14160   0.00001   0.00000   0.00052   0.00052   3.14212
   A11        3.14201  -0.00002   0.00000  -0.00042  -0.00042   3.14160
    D1       -1.73037  -0.00008   0.00000  -0.00559  -0.00559  -1.73596
    D2        1.73012   0.00008   0.00000   0.00521   0.00521   1.73533
    D3       -1.73054  -0.00012   0.00000  -0.00565  -0.00565  -1.73619
    D4        2.82252  -0.00019   0.00000  -0.01086  -0.01085   2.81167
    D5        2.09441   0.00001   0.00000   0.00000   0.00000   2.09442
    D6       -2.09426   0.00000   0.00000   0.00012   0.00012  -2.09413
    D7        2.09451  -0.00001   0.00000   0.00012   0.00012   2.09463
         Item               Value     Threshold  Converged?
 Maximum Force            0.000658     0.000450     NO 
 RMS     Force            0.000268     0.000300     YES
 Maximum Displacement     0.004406     0.001800     NO 
 RMS     Displacement     0.001805     0.001200     NO 
 Predicted change in Energy=-3.815201D-06
 GradGradGradGradGradGradGradGradGradGradGradGradGradGradGradGradGradGrad

                          Input orientation:                          
 ---------------------------------------------------------------------
 Center     Atomic      Atomic             Coordinates (Angstroms)
 Number     Number       Type             X           Y           Z
 ---------------------------------------------------------------------
      1          6           0        5.391637    0.665194   -1.051438
      2         17           0        6.999804   -0.384432   -1.977742
      3          1           0        5.057733    1.161768   -1.954453
      4          1           0        4.868576   -0.221404   -0.713778
      5          1           0        6.013055    1.209163   -0.350481
      6          9           0        3.885795    1.647771   -0.182998
 ---------------------------------------------------------------------
                    Distance matrix (angstroms):
                    1          2          3          4          5
     1  C    0.000000
     2  Cl   2.132125   0.000000
     3  H    1.083288   2.482522   0.000000
     4  H    1.083358   2.483207   1.867678   0.000000
     5  H    1.083237   2.482176   1.867515   1.867710   0.000000
     6  F    1.996798   4.128923   2.178919   2.177476   2.178453
                    6
     6  F    0.000000
 Symmetry turned off by external request.
 Stoichiometry    CH3ClF(1-)
 Framework group  C1[X(CH3ClF)]
 Deg. of freedom    12
 Full point group                 C1      NOp   1
 Rotational constants (GHZ):         143.7633138           2.3246452           2.3246404
 Standard basis: def2SVP (5D, 7F)
    61 basis functions,   108 primitive gaussians,    64 cartesian basis functions
    18 alpha electrons       18 beta electrons
       nuclear repulsion energy        86.3080804408 Hartrees.
 NAtoms=    6 NActive=    6 NUniq=    6 SFac= 1.00D+00 NAtFMM=   60 NAOKFM=F Big=F
 Integral buffers will be    131072 words long.
 Raffenetti 2 integral format.
 Two-electron integral symmetry is turned off.
 Nuclear repulsion after empirical dispersion term =       86.3056753445 Hartrees.
 Force inversion solution in PCM.
 ------------------------------------------------------------------------------
 Polarizable Continuum Model (PCM)
 =================================
 Model                : PCM.
 Atomic radii         : SMD-Coulomb.
 Polarization charges : Total charges.
 Charge compensation  : None.
 Solution method      : Matrix inversion.
 Cavity type          : VdW (van der Waals Surface) (Alpha=1.000).
 Cavity algorithm     : GePol (No added spheres)
                        Default sphere list used, NSphG=    6.
                        Lebedev-Laikov grids with approx.  5.0 points / Ang**2.
                        Smoothing algorithm: York/Karplus (Gamma=1.0000).
                        Polarization charges: spherical gaussians, with
                                              point-specific exponents (IZeta= 3).
                        Self-potential: point-specific (ISelfS= 7).
                        Self-field    : sphere-specific E.n sum rule (ISelfD= 2).
 1st derivatives      : Analytical E(r).r(x)/FMM algorithm (CHGder, D1EAlg=3).
                        Cavity 1st derivative terms included.
 Solvent              : Water, Eps=  78.355300 Eps(inf)=   1.777849
 ------------------------------------------------------------------------------
 Spheres list:
 ISph  on   Nord     Re0    Alpha      Xe            Ye            Ze
    1   C      1    1.8500  1.000      5.391637      0.665194     -1.051438
    2  Cl      2    2.3800  1.000      6.999804     -0.384432     -1.977742
    3   H      3    1.2000  1.000      5.057733      1.161768     -1.954453
    4   H      4    1.2000  1.000      4.868576     -0.221404     -0.713778
    5   H      5    1.2000  1.000      6.013055      1.209163     -0.350481
    6   F      6    1.7300  1.000      3.885795      1.647771     -0.182998
 ------------------------------------------------------------------------------
 ------------------------------------------------------------------------------
 Atomic radii for non-electrostatic terms: SMD-CDS.
 ------------------------------------------------------------------------------
 Nuclear repulsion after PCM non-electrostatic terms =       86.3101419300 Hartrees.
 One-electron integrals computed using PRISM.
   1 Symmetry operations used in ECPInt.
 ECPInt:  NShTT=     435 NPrTT=    1711 LenC2=     430 LenP2D=    1437.
 LDataN:  DoStor=T MaxTD1= 4 Len=   56
 NBasis=    61 RedAO= T EigKep=  1.27D-02  NBF=    61
 NBsUse=    61 1.00D-06 EigRej= -1.00D+00 NBFU=    61
 Initial guess from the checkpoint file:  "/home/thijs/scratch/Gau-2620995.chk"
 B after Tr=     0.001873   -0.002510   -0.000966
         Rot=    1.000000   -0.000018    0.000006   -0.000037 Ang=  -0.00 deg.
 Keep R1 ints in memory in canonical form, NReq=5346432.
 Requested convergence on RMS density matrix=1.00D-08 within 128 cycles.
 Requested convergence on MAX density matrix=1.00D-06.
 Requested convergence on             energy=1.00D-06.
 No special actions if energy rises.
 Inv3:  Mode=1 IEnd=     1678512.
 Iteration    1 A*A^-1 deviation from unit magnitude is 2.89D-15 for    746.
 Iteration    1 A*A^-1 deviation from orthogonality  is 1.18D-15 for    322     57.
 Iteration    1 A^-1*A deviation from unit magnitude is 2.89D-15 for    746.
 Iteration    1 A^-1*A deviation from orthogonality  is 9.16D-16 for    515    384.
 Error on total polarization charges =  0.00713
 SCF Done:  E(RPBE1PBE) =  -599.478554325     A.U. after    8 cycles
            NFock=  8  Conv=0.23D-08     -V/T= 2.0030
 SMD-CDS (non-electrostatic) energy       (kcal/mol) =       2.80
 (included in total energy above)
 DoSCS=F DFT=T ScalE2(SS,OS)=  1.000000  1.000000
 Range of M.O.s used for correlation:     1    61
 NBasis=    61 NAE=    18 NBE=    18 NFC=     0 NFV=     0
 NROrb=     61 NOA=    18 NOB=    18 NVA=    43 NVB=    43
 Symmetrizing basis deriv contribution to polar:
 IMax=3 JMax=2 DiffMx= 0.00D+00
   1 Symmetry operations used in ECPInt.
 ECPInt:  NShTT=     435 NPrTT=    1711 LenC2=     430 LenP2D=    1437.
 LDataN:  DoStor=T MaxTD1= 5 Len=  102
 D1PCM: PCM CHGder 1st derivatives, ID1Alg=3 FixD1E=F DoIter=F DoCFld=F I1PDM=0.
 Calling FoFJK, ICntrl=      2127 FMM=F ISym2X=0 I1Cent= 0 IOpClX= 0 NMat=1 NMatS=1 NMatT=0.
 -------------------------------------------------------------------
 Center     Atomic                   Forces (Hartrees/Bohr)
 Number     Number              X              Y              Z
 -------------------------------------------------------------------
      1        6          -0.000000418    0.000001027    0.000001264
      2       17           0.000000781   -0.000002011    0.000001665
      3        1          -0.000013995   -0.000018319   -0.000007016
      4        1           0.000010196   -0.000000566    0.000020528
      5        1           0.000003669    0.000018547   -0.000014643
      6        9          -0.000000234    0.000001322   -0.000001798
 -------------------------------------------------------------------
 Cartesian Forces:  Max     0.000020528 RMS     0.000009700

 GradGradGradGradGradGradGradGradGradGradGradGradGradGradGradGradGradGrad
 Berny optimization.
 FormGI is forming the generalized inverse of G from B-inverse, IUseBI=4.
 Internal  Forces:  Max     0.000001937 RMS     0.000000731
 Search for a saddle point.
 Step number   2 out of a maximum of  100
 All quantities printed in internal units (Hartrees-Bohrs-Radians)
 Swapping is turned off.
 Update second derivatives using D2CorX and points    1    2
 ITU=  0  0
     Eigenvalues ---   -0.02001   0.03405   0.03697   0.03995   0.04596
     Eigenvalues ---    0.04678   0.04949   0.06702   0.08276   0.38238
     Eigenvalues ---    0.38928   0.38959
 Eigenvectors required to have negative eigenvalues:
                          R5        R1        D4        D3        D2
   1                    0.58479  -0.49406  -0.42602  -0.22183   0.20419
                          D1        A3        A9        A8        A2
   1                   -0.19390   0.14701  -0.13100  -0.13007   0.12533
 RFO step:  Lambda0=2.327126339D-11 Lambda= 0.00000000D+00.
 Linear search not attempted -- option 19 set.
 Iteration  1 RMS(Cart)=  0.00000569 RMS(Int)=  0.00000000
 Iteration  2 RMS(Cart)=  0.00000000 RMS(Int)=  0.00000000
 Variable       Old X    -DE/DX   Delta X   Delta X   Delta X     New X
                                 (Linear)    (Quad)   (Total)
    R1        4.02913   0.00000   0.00000  -0.00001  -0.00001   4.02912
    R2        2.04712   0.00000   0.00000   0.00001   0.00001   2.04712
    R3        2.04725   0.00000   0.00000   0.00000   0.00000   2.04725
    R4        2.04702   0.00000   0.00000   0.00001   0.00001   2.04703
    R5        3.77340   0.00000   0.00000   0.00003   0.00003   3.77343
    A1        1.66694  -0.00000   0.00000   0.00000   0.00000   1.66694
    A2        1.66764  -0.00000   0.00000   0.00001   0.00001   1.66765
    A3        1.66660  -0.00000   0.00000   0.00000   0.00000   1.66660
    A4        2.07846  -0.00000   0.00000  -0.00001  -0.00001   2.07845
    A5        2.07835   0.00000   0.00000   0.00000   0.00000   2.07835
    A6        1.47518   0.00000   0.00000  -0.00000  -0.00000   1.47518
    A7        2.07859   0.00000   0.00000   0.00001   0.00001   2.07860
    A8        1.47369  -0.00000   0.00000  -0.00001  -0.00001   1.47368
    A9        1.47473   0.00000   0.00000  -0.00000  -0.00000   1.47473
   A10        3.14212   0.00000   0.00000   0.00000   0.00000   3.14212
   A11        3.14160  -0.00000   0.00000  -0.00000  -0.00000   3.14159
    D1       -1.73596   0.00000   0.00000  -0.00000  -0.00000  -1.73596
    D2        1.73533  -0.00000   0.00000   0.00001   0.00001   1.73534
    D3       -1.73619   0.00000   0.00000  -0.00001  -0.00001  -1.73620
    D4        2.81167   0.00000   0.00000  -0.00002  -0.00002   2.81165
    D5        2.09442  -0.00000   0.00000  -0.00001  -0.00001   2.09441
    D6       -2.09413  -0.00000   0.00000  -0.00000  -0.00000  -2.09414
    D7        2.09463   0.00000   0.00000   0.00001   0.00001   2.09464
         Item               Value     Threshold  Converged?
 Maximum Force            0.000002     0.000450     YES
 RMS     Force            0.000001     0.000300     YES
 Maximum Displacement     0.000014     0.001800     YES
 RMS     Displacement     0.000006     0.001200     YES
 Predicted change in Energy=-1.338507D-11
 Optimization completed.
    -- Stationary point found.
                           ----------------------------
                           !   Optimized Parameters   !
                           ! (Angstroms and Degrees)  !
 --------------------------                            --------------------------
 ! Name  Definition              Value          Derivative Info.                !
 --------------------------------------------------------------------------------
 ! R1    R(1,2)                  2.1321         -DE/DX =    0.0                 !
 ! R2    R(1,3)                  1.0833         -DE/DX =    0.0                 !
 ! R3    R(1,4)                  1.0834         -DE/DX =    0.0                 !
 ! R4    R(1,5)                  1.0832         -DE/DX =    0.0                 !
 ! R5    R(1,6)                  1.9968         -DE/DX =    0.0                 !
 ! A1    A(2,1,3)               95.5087         -DE/DX =    0.0                 !
 ! A2    A(2,1,4)               95.5488         -DE/DX =    0.0                 !
 ! A3    A(2,1,5)               95.4889         -DE/DX =    0.0                 !
 ! A4    A(3,1,4)              119.0868         -DE/DX =    0.0                 !
 ! A5    A(3,1,5)              119.0806         -DE/DX =    0.0                 !
 ! A6    A(3,1,6)               84.5216         -DE/DX =    0.0                 !
 ! A7    A(4,1,5)              119.0947         -DE/DX =    0.0                 !
 ! A8    A(4,1,6)               84.4363         -DE/DX =    0.0                 !
 ! A9    A(5,1,6)               84.4958         -DE/DX =    0.0                 !
 ! A10   L(2,1,6,3,-1)         180.0302         -DE/DX =    0.0                 !
 ! A11   L(2,1,6,3,-2)         180.0002         -DE/DX =    0.0                 !
 ! D1    D(2,1,4,3)            -99.463          -DE/DX =    0.0                 !
 ! D2    D(2,1,5,3)             99.4271         -DE/DX =    0.0                 !
 ! D3    D(2,1,5,4)            -99.4763         -DE/DX =    0.0                 !
 ! D4    D(3,1,5,4)            161.0966         -DE/DX =    0.0                 !
 ! D5    D(3,1,6,4)            120.0013         -DE/DX =    0.0                 !
 ! D6    D(3,1,6,5)           -119.9851         -DE/DX =    0.0                 !
 ! D7    D(4,1,6,5)            120.0136         -DE/DX =    0.0                 !
 --------------------------------------------------------------------------------
 GradGradGradGradGradGradGradGradGradGradGradGradGradGradGradGradGradGrad

                          Input orientation:                          
 ---------------------------------------------------------------------
 Center     Atomic      Atomic             Coordinates (Angstroms)
 Number     Number       Type             X           Y           Z
 ---------------------------------------------------------------------
      1          6           0        5.391637    0.665194   -1.051438
      2         17           0        6.999804   -0.384432   -1.977742
      3          1           0        5.057733    1.161768   -1.954453
      4          1           0        4.868576   -0.221404   -0.713778
      5          1           0        6.013055    1.209163   -0.350481
      6          9           0        3.885795    1.647771   -0.182998
 ---------------------------------------------------------------------
                    Distance matrix (angstroms):
                    1          2          3          4          5
     1  C    0.000000
     2  Cl   2.132125   0.000000
     3  H    1.083288   2.482522   0.000000
     4  H    1.083358   2.483207   1.867678   0.000000
     5  H    1.083237   2.482176   1.867515   1.867710   0.000000
     6  F    1.996798   4.128923   2.178919   2.177476   2.178453
                    6
     6  F    0.000000
 Symmetry turned off by external request.
 Stoichiometry    CH3ClF(1-)
 Framework group  C1[X(CH3ClF)]
 Deg. of freedom    12
 Full point group                 C1      NOp   1
 Rotational constants (GHZ):         143.7633138           2.3246452           2.3246404

 **********************************************************************

            Population analysis using the SCF Density.

 **********************************************************************

 Alpha  occ. eigenvalues -- -101.57596 -24.56140 -10.26587  -9.42596  -7.16491
 Alpha  occ. eigenvalues --   -7.15907  -7.15907  -0.95746  -0.75213  -0.64740
 Alpha  occ. eigenvalues --   -0.42332  -0.42327  -0.32671  -0.25002  -0.25002
 Alpha  occ. eigenvalues --   -0.23483  -0.23481  -0.22067
 Alpha virt. eigenvalues --    0.05471   0.10946   0.16960   0.16964   0.47408
 Alpha virt. eigenvalues --    0.47410   0.55451   0.62427   0.70608   0.70610
 Alpha virt. eigenvalues --    0.73511   0.74722   0.87453   0.87456   0.88994
 Alpha virt. eigenvalues --    0.88997   0.94025   0.95304   0.95310   1.20713
 Alpha virt. eigenvalues --    1.20731   1.26715   1.27835   1.40154   1.40170
 Alpha virt. eigenvalues --    1.50531   1.68774   1.71968   1.71971   1.97682
 Alpha virt. eigenvalues --    2.17320   2.17329   2.25036   2.34430   2.34439
 Alpha virt. eigenvalues --    2.89289   2.94023   2.94035   3.27340   3.27342
 Alpha virt. eigenvalues --    3.28197   3.28201   3.36743
          Condensed to atoms (all electrons):
               1          2          3          4          5          6
     1  C    4.564274   0.105541   0.412031   0.411969   0.412030   0.078089
     2  Cl   0.105541  17.528718  -0.026352  -0.026369  -0.026388   0.001150
     3  H    0.412031  -0.026352   0.562065  -0.013456  -0.013469  -0.004544
     4  H    0.411969  -0.026369  -0.013456   0.561875  -0.013437  -0.004507
     5  H    0.412030  -0.026388  -0.013469  -0.013437   0.562153  -0.004530
     6  F    0.078089   0.001150  -0.004544  -0.004507  -0.004530   9.645397
 Mulliken charges:
               1
     1  C    0.016067
     2  Cl  -0.556300
     3  H    0.083724
     4  H    0.083924
     5  H    0.083641
     6  F   -0.711056
 Sum of Mulliken charges =  -1.00000
 Mulliken charges with hydrogens summed into heavy atoms:
               1
     1  C    0.267356
     2  Cl  -0.556300
     6  F   -0.711056
 APT charges:
               1
     1  C   -0.242553
     2  Cl  -0.679285
     3  H    0.210820
     4  H   -0.361248
     5  H    0.827093
     6  F   -0.754827
 Sum of APT charges =  -1.00000
 APT charges with hydrogens summed into heavy atoms:
               1
     1  C    0.434112
     2  Cl  -0.679285
     6  F   -0.754827
 Electronic spatial extent (au):  <R**2>=           4962.4983
 Charge=             -1.0000 electrons
 Dipole moment (field-independent basis, Debye):
    X=            -25.1463    Y=             -3.6851    Z=              4.6139  Tot=             25.8303
 Quadrupole moment (field-independent basis, Debye-Ang):
   XX=           -172.7001   YY=            -35.0602   ZZ=            -35.2241
   XY=             -9.2649   XZ=             33.0096   YZ=             -2.2399
 Traceless Quadrupole moment (field-independent basis, Debye-Ang):
   XX=            -91.7053   YY=             45.9346   ZZ=             45.7707
   XY=             -9.2649   XZ=             33.0096   YZ=             -2.2399
 Octapole moment (field-independent basis, Debye-Ang**2):
  XXX=          -1391.8419  YYY=            -40.8800  ZZZ=            124.0761  XYY=           -188.2433
  XXY=            -12.6104  XXZ=            271.9876  XZZ=           -220.7509  YZZ=             -2.7902
  YYZ=             36.4592  XYZ=            -16.0258
 Hexadecapole moment (field-independent basis, Debye-Ang**3):
 XXXX=         -11946.3416 YYYY=           -176.5292 ZZZZ=           -432.2677 XXXY=            112.8482
 XXXZ=           2383.2714 YYYX=           -131.3687 YYYZ=             -8.2057 ZZZX=            826.3458
 ZZZY=            -21.7061 XXYY=          -1109.0983 XXZZ=          -1499.5403 YYZZ=            -89.8583
 XXYZ=           -111.0885 YYXZ=            235.9255 ZZXY=             10.3036
 N-N= 8.631014192996D+01 E-N=-1.607122305282D+03  KE= 5.977057114577D+02
  Exact polarizability:       0.000       0.000       0.000       0.000       0.000       0.000
 Approx polarizability:      55.589     -21.573      36.604     -19.052      12.432      33.505
 -------------------------------------------------------------------
 Center     Atomic                   Forces (Hartrees/Bohr)
 Number     Number              X              Y              Z
 -------------------------------------------------------------------
      1        6          -0.000000418    0.000001027    0.000001264
      2       17           0.000000781   -0.000002011    0.000001665
      3        1          -0.000013995   -0.000018319   -0.000007016
      4        1           0.000010196   -0.000000566    0.000020528
      5        1           0.000003669    0.000018547   -0.000014643
      6        9          -0.000000234    0.000001322   -0.000001798
 -------------------------------------------------------------------
 Cartesian Forces:  Max     0.000020528 RMS     0.000009700
 Unable to Open any file for archive entry.
 1\1\GINC-DALE\FTS\RPBE1PBE\def2SVP\C1H3Cl1F1(1-)\THIJS\31-May-2024\0\\
 # PBE1PBE Def2SVP Freq EmpiricalDispersion=GD3BJ Opt=(TS, CalcFC, NoEi
 genTest, MaxCycles=100, MaxStep=10, NoTrustUpdate, RecalcFC=30) Geom=M
 odRedun NoSymm scrf=(smd,solvent=Water)\\TS_dOr2Us_ll_ad_0-5_0-1_optts
 _conf_g16\\-1,1\C,5.3916369632,0.6651941089,-1.0514379206\Cl,6.9998039
 557,-0.3844319476,-1.9777421271\H,5.0577330161,1.1617676882,-1.9544531
 4\H,4.8685760844,-0.2214043013,-0.7137775894\H,6.0130545002,1.20916331
 85,-0.3504808155\F,3.8857954805,1.6477711333,-0.1829984074\\Version=ES
 64L-G16RevC.01\HF=-599.4785543\RMSD=2.314e-09\RMSF=9.700e-06\Dipole=1.
 0270446,-0.670448,-0.5925695\Polar=0.,0.,0.,0.,0.,0.\Quadrupole=-68.18
 06521,34.1512482,34.0294039,-6.888245,24.5418521,-1.6653112\PG=C01 [X(
 C1H3Cl1F1)]\\@
 The archive entry for this job was punched.


 IF I HAVE SEEN FARTHER, IT IS BY STANDING ON THE
 SHOULDERS OF GIANTS. -- SIR ISAAC NEWTON
 Job cpu time:       0 days  0 hours  1 minutes 46.2 seconds.
 Elapsed time:       0 days  0 hours  0 minutes 30.3 seconds.
 File lengths (MBytes):  RWF=     17 Int=      0 D2E=      0 Chk=      3 Scr=      1
 Normal termination of Gaussian 16 at Fri May 31 17:51:36 2024.
 Link1:  Proceeding to internal job step number  2.
 ---------------------------------------------------------------------
 #N Geom=AllCheck Guess=TCheck SCRF=Check GenChk RPBE1PBE/def2SVP Freq
 ---------------------------------------------------------------------
 1/5=1,6=100,8=10,9=1,10=4,11=1,29=7,30=1,38=1,40=1,71=30/1,3;
 2/12=2,15=1,40=1/2;
 3/5=43,7=101,11=2,14=-4,25=1,30=1,70=2,71=2,74=-13,116=1,124=41,140=1/1,2,3;
 4/5=101/1;
 5/5=2,38=6,98=1/2;
 8/6=4,10=90,11=11/1;
 11/6=1,8=1,9=11,15=111,16=1,31=1/1,2,10;
 10/6=1,31=1/2;
 6/7=2,8=2,9=2,10=2,28=1/1;
 7/8=1,10=1,25=1,30=1/1,2,3,16;
 1/5=1,6=100,8=10,9=1,10=4,11=1,30=1,71=30/3;
 99//99;
 Structure from the checkpoint file:  "/home/thijs/scratch/Gau-2620995.chk"
 --------------------------------------
 TS_dOr2Us_ll_ad_0-5_0-1_optts_conf_g16
 --------------------------------------
 Charge = -1 Multiplicity = 1
 Redundant internal coordinates found in file.  (old form).
 C,0,5.3916369632,0.6651941089,-1.0514379206
 Cl,0,6.9998039557,-0.3844319476,-1.9777421271
 H,0,5.0577330161,1.1617676882,-1.95445314
 H,0,4.8685760844,-0.2214043013,-0.7137775894
 H,0,6.0130545002,1.2091633185,-0.3504808155
 F,0,3.8857954805,1.6477711333,-0.1829984074
 Recover connectivity data from disk.

 GradGradGradGradGradGradGradGradGradGradGradGradGradGradGradGradGradGrad
 Berny optimization.
 Initialization pass.
                           ----------------------------
                           !    Initial Parameters    !
                           ! (Angstroms and Degrees)  !
 --------------------------                            --------------------------
 ! Name  Definition              Value          Derivative Info.                !
 --------------------------------------------------------------------------------
 ! R1    R(1,2)                  2.1321         calculate D2E/DX2 analytically  !
 ! R2    R(1,3)                  1.0833         calculate D2E/DX2 analytically  !
 ! R3    R(1,4)                  1.0834         calculate D2E/DX2 analytically  !
 ! R4    R(1,5)                  1.0832         calculate D2E/DX2 analytically  !
 ! R5    R(1,6)                  1.9968         calculate D2E/DX2 analytically  !
 ! A1    A(2,1,3)               95.5087         calculate D2E/DX2 analytically  !
 ! A2    A(2,1,4)               95.5488         calculate D2E/DX2 analytically  !
 ! A3    A(2,1,5)               95.4889         calculate D2E/DX2 analytically  !
 ! A4    A(3,1,4)              119.0868         calculate D2E/DX2 analytically  !
 ! A5    A(3,1,5)              119.0806         calculate D2E/DX2 analytically  !
 ! A6    A(3,1,6)               84.5216         calculate D2E/DX2 analytically  !
 ! A7    A(4,1,5)              119.0947         calculate D2E/DX2 analytically  !
 ! A8    A(4,1,6)               84.4363         calculate D2E/DX2 analytically  !
 ! A9    A(5,1,6)               84.4958         calculate D2E/DX2 analytically  !
 ! A10   L(2,1,6,3,-1)         180.0302         calculate D2E/DX2 analytically  !
 ! A11   L(2,1,6,3,-2)         180.0002         calculate D2E/DX2 analytically  !
 ! D1    D(2,1,4,3)            -99.463          calculate D2E/DX2 analytically  !
 ! D2    D(2,1,5,3)             99.4271         calculate D2E/DX2 analytically  !
 ! D3    D(2,1,5,4)            -99.4763         calculate D2E/DX2 analytically  !
 ! D4    D(3,1,5,4)            161.0966         calculate D2E/DX2 analytically  !
 ! D5    D(3,1,6,4)            120.0013         calculate D2E/DX2 analytically  !
 ! D6    D(3,1,6,5)           -119.9851         calculate D2E/DX2 analytically  !
 ! D7    D(4,1,6,5)            120.0136         calculate D2E/DX2 analytically  !
 --------------------------------------------------------------------------------
 Trust Radius=1.00D-01 FncErr=1.00D-07 GrdErr=1.00D-07 EigMax=2.50D+02 EigMin=1.00D-04
 Number of steps in this run=      2 maximum allowed number of steps=      2.
 Search for a saddle point of order  1.
 GradGradGradGradGradGradGradGradGradGradGradGradGradGradGradGradGradGrad

                          Input orientation:                          
 ---------------------------------------------------------------------
 Center     Atomic      Atomic             Coordinates (Angstroms)
 Number     Number       Type             X           Y           Z
 ---------------------------------------------------------------------
      1          6           0        5.391637    0.665194   -1.051438
      2         17           0        6.999804   -0.384432   -1.977742
      3          1           0        5.057733    1.161768   -1.954453
      4          1           0        4.868576   -0.221404   -0.713778
      5          1           0        6.013055    1.209163   -0.350481
      6          9           0        3.885795    1.647771   -0.182998
 ---------------------------------------------------------------------
                    Distance matrix (angstroms):
                    1          2          3          4          5
     1  C    0.000000
     2  Cl   2.132125   0.000000
     3  H    1.083288   2.482522   0.000000
     4  H    1.083358   2.483207   1.867678   0.000000
     5  H    1.083237   2.482176   1.867515   1.867710   0.000000
     6  F    1.996798   4.128923   2.178919   2.177476   2.178453
                    6
     6  F    0.000000
 Symmetry turned off by external request.
 Stoichiometry    CH3ClF(1-)
 Framework group  C1[X(CH3ClF)]
 Deg. of freedom    12
 Full point group                 C1      NOp   1
 Rotational constants (GHZ):         143.7633138           2.3246452           2.3246404
 Standard basis: def2SVP (5D, 7F)
    61 basis functions,   108 primitive gaussians,    64 cartesian basis functions
    18 alpha electrons       18 beta electrons
       nuclear repulsion energy        86.3080804408 Hartrees.
 NAtoms=    6 NActive=    6 NUniq=    6 SFac= 1.00D+00 NAtFMM=   60 NAOKFM=F Big=F
 Integral buffers will be    131072 words long.
 Raffenetti 2 integral format.
 Two-electron integral symmetry is turned off.
 Nuclear repulsion after empirical dispersion term =       86.3056753445 Hartrees.
 Force inversion solution in PCM.
 ------------------------------------------------------------------------------
 Polarizable Continuum Model (PCM)
 =================================
 Model                : PCM.
 Atomic radii         : SMD-Coulomb.
 Polarization charges : Total charges.
 Charge compensation  : None.
 Solution method      : Matrix inversion.
 Cavity type          : VdW (van der Waals Surface) (Alpha=1.000).
 Cavity algorithm     : GePol (No added spheres)
                        Default sphere list used, NSphG=    6.
                        Lebedev-Laikov grids with approx.  5.0 points / Ang**2.
                        Smoothing algorithm: York/Karplus (Gamma=1.0000).
                        Polarization charges: spherical gaussians, with
                                              point-specific exponents (IZeta= 3).
                        Self-potential: point-specific (ISelfS= 7).
                        Self-field    : sphere-specific E.n sum rule (ISelfD= 2).
 1st derivatives      : Analytical E(r).r(x)/FMM algorithm (CHGder, D1EAlg=3).
                        Cavity 1st derivative terms included.
 2nd derivatives      : Analytical E(r).r(xy)/FMM algorithm (CHGder, D2EAlg=3).
                        Cavity 2nd derivative terms included.
 Solvent              : Water, Eps=  78.355300 Eps(inf)=   1.777849
 ------------------------------------------------------------------------------
 Spheres list:
 ISph  on   Nord     Re0    Alpha      Xe            Ye            Ze
    1   C      1    1.8500  1.000      5.391637      0.665194     -1.051438
    2  Cl      2    2.3800  1.000      6.999804     -0.384432     -1.977742
    3   H      3    1.2000  1.000      5.057733      1.161768     -1.954453
    4   H      4    1.2000  1.000      4.868576     -0.221404     -0.713778
    5   H      5    1.2000  1.000      6.013055      1.209163     -0.350481
    6   F      6    1.7300  1.000      3.885795      1.647771     -0.182998
 ------------------------------------------------------------------------------
 ------------------------------------------------------------------------------
 Atomic radii for non-electrostatic terms: SMD-CDS.
 ------------------------------------------------------------------------------
 Nuclear repulsion after PCM non-electrostatic terms =       86.3101419300 Hartrees.
 One-electron integrals computed using PRISM.
   1 Symmetry operations used in ECPInt.
 ECPInt:  NShTT=     435 NPrTT=    1711 LenC2=     430 LenP2D=    1437.
 LDataN:  DoStor=T MaxTD1= 4 Len=   56
 NBasis=    61 RedAO= T EigKep=  1.27D-02  NBF=    61
 NBsUse=    61 1.00D-06 EigRej= -1.00D+00 NBFU=    61
 Initial guess from the checkpoint file:  "/home/thijs/scratch/Gau-2620995.chk"
 B after Tr=     0.000000    0.000000    0.000000
         Rot=    1.000000    0.000000    0.000000    0.000000 Ang=   0.00 deg.
 Keep R1 ints in memory in canonical form, NReq=5346432.
 Requested convergence on RMS density matrix=1.00D-08 within 128 cycles.
 Requested convergence on MAX density matrix=1.00D-06.
 Requested convergence on             energy=1.00D-06.
 No special actions if energy rises.
 Inv3:  Mode=1 IEnd=     1678512.
 Iteration    1 A*A^-1 deviation from unit magnitude is 2.89D-15 for    746.
 Iteration    1 A*A^-1 deviation from orthogonality  is 1.19D-15 for    322     57.
 Iteration    1 A^-1*A deviation from unit magnitude is 2.89D-15 for    746.
 Iteration    1 A^-1*A deviation from orthogonality  is 9.65D-16 for    645     45.
 Error on total polarization charges =  0.00713
 SCF Done:  E(RPBE1PBE) =  -599.478554325     A.U. after    1 cycles
            NFock=  1  Conv=0.80D-09     -V/T= 2.0030
 SMD-CDS (non-electrostatic) energy       (kcal/mol) =       2.80
 (included in total energy above)
 DoSCS=F DFT=T ScalE2(SS,OS)=  1.000000  1.000000
 Range of M.O.s used for correlation:     1    61
 NBasis=    61 NAE=    18 NBE=    18 NFC=     0 NFV=     0
 NROrb=     61 NOA=    18 NOB=    18 NVA=    43 NVB=    43
   1 Symmetry operations used in ECPInt.
 ECPInt:  NShTT=     435 NPrTT=    1711 LenC2=     430 LenP2D=    1437.
 LDataN:  DoStor=T MaxTD1= 5 Len=  102
 Symmetrizing basis deriv contribution to polar:
 IMax=3 JMax=2 DiffMx= 0.00D+00
 G2DrvN: will do     7 centers at a time, making    1 passes.
 Calling FoFCou, ICntrl=  3107 FMM=F I1Cent=   0 AccDes= 0.00D+00.
 NEqPCM:  Using equilibrium solvation (IEInf=0, Eps=  78.3553, EpsInf=   1.7778)
 G2PCM: DoFxE=T DoFxN=T DoGrad=T DoDP/DQ/DG/TGxP=FFFF NFrqRd=   0 IEInf=0 SqF1=F DoCFld=F IF1Alg=4.
 End of G2Drv F.D. properties file   721 does not exist.
 End of G2Drv F.D. properties file   722 does not exist.
 End of G2Drv F.D. properties file   788 does not exist.
          IDoAtm=111111
 NEqPCM:  Using equilibrium solvation (IEInf=0, Eps=  78.3553, EpsInf=   1.7778)
          Differentiating once with respect to electric field.
                with respect to dipole field.
          Differentiating once with respect to nuclear coordinates.
 Keep R1 ints in memory in canonical form, NReq=5338004.
          There are    21 degrees of freedom in the 1st order CPHF.  IDoFFX=6 NUNeed=     3.
     18 vectors produced by pass  0 Test12= 3.69D-15 4.76D-09 XBig12= 3.96D+01 5.56D+00.
 AX will form    18 AO Fock derivatives at one time.
     18 vectors produced by pass  1 Test12= 3.69D-15 4.76D-09 XBig12= 3.94D+00 4.81D-01.
     18 vectors produced by pass  2 Test12= 3.69D-15 4.76D-09 XBig12= 1.31D-01 1.19D-01.
     18 vectors produced by pass  3 Test12= 3.69D-15 4.76D-09 XBig12= 1.92D-03 1.58D-02.
     18 vectors produced by pass  4 Test12= 3.69D-15 4.76D-09 XBig12= 3.80D-06 4.83D-04.
      9 vectors produced by pass  5 Test12= 3.69D-15 4.76D-09 XBig12= 2.96D-09 1.45D-05.
      3 vectors produced by pass  6 Test12= 3.69D-15 4.76D-09 XBig12= 2.46D-12 4.74D-07.
      1 vectors produced by pass  7 Test12= 3.69D-15 4.76D-09 XBig12= 2.08D-15 1.51D-08.
 InvSVY:  IOpt=1 It=  1 EMax= 2.22D-15
 Solved reduced A of dimension   103 with    21 vectors.
 Isotropic polarizability for W=    0.000000       36.26 Bohr**3.
 End of Minotr F.D. properties file   721 does not exist.
 End of Minotr F.D. properties file   722 does not exist.
 End of Minotr F.D. properties file   788 does not exist.

 **********************************************************************

            Population analysis using the SCF Density.

 **********************************************************************

 Alpha  occ. eigenvalues -- -101.57596 -24.56140 -10.26587  -9.42596  -7.16491
 Alpha  occ. eigenvalues --   -7.15907  -7.15907  -0.95746  -0.75213  -0.64740
 Alpha  occ. eigenvalues --   -0.42332  -0.42327  -0.32671  -0.25002  -0.25002
 Alpha  occ. eigenvalues --   -0.23483  -0.23481  -0.22067
 Alpha virt. eigenvalues --    0.05471   0.10946   0.16960   0.16964   0.47408
 Alpha virt. eigenvalues --    0.47410   0.55451   0.62427   0.70608   0.70610
 Alpha virt. eigenvalues --    0.73511   0.74722   0.87453   0.87456   0.88994
 Alpha virt. eigenvalues --    0.88997   0.94025   0.95304   0.95310   1.20713
 Alpha virt. eigenvalues --    1.20731   1.26715   1.27835   1.40154   1.40170
 Alpha virt. eigenvalues --    1.50531   1.68774   1.71968   1.71971   1.97682
 Alpha virt. eigenvalues --    2.17320   2.17329   2.25036   2.34430   2.34439
 Alpha virt. eigenvalues --    2.89289   2.94023   2.94035   3.27340   3.27342
 Alpha virt. eigenvalues --    3.28197   3.28201   3.36743
          Condensed to atoms (all electrons):
               1          2          3          4          5          6
     1  C    4.564274   0.105541   0.412031   0.411969   0.412030   0.078089
     2  Cl   0.105541  17.528718  -0.026352  -0.026369  -0.026388   0.001150
     3  H    0.412031  -0.026352   0.562065  -0.013456  -0.013469  -0.004544
     4  H    0.411969  -0.026369  -0.013456   0.561875  -0.013437  -0.004507
     5  H    0.412030  -0.026388  -0.013469  -0.013437   0.562153  -0.004530
     6  F    0.078089   0.001150  -0.004544  -0.004507  -0.004530   9.645397
 Mulliken charges:
               1
     1  C    0.016067
     2  Cl  -0.556300
     3  H    0.083724
     4  H    0.083924
     5  H    0.083641
     6  F   -0.711056
 Sum of Mulliken charges =  -1.00000
 Mulliken charges with hydrogens summed into heavy atoms:
               1
     1  C    0.267356
     2  Cl  -0.556300
     6  F   -0.711056
 APT charges:
               1
     1  C    1.157942
     2  Cl  -1.004705
     3  H    0.003825
     4  H    0.003560
     5  H    0.004213
     6  F   -1.164835
 Sum of APT charges =  -1.00000
 APT charges with hydrogens summed into heavy atoms:
               1
     1  C    1.169540
     2  Cl  -1.004705
     6  F   -1.164835
 Electronic spatial extent (au):  <R**2>=           4962.4983
 Charge=             -1.0000 electrons
 Dipole moment (field-independent basis, Debye):
    X=            -25.1463    Y=             -3.6851    Z=              4.6139  Tot=             25.8303
 Quadrupole moment (field-independent basis, Debye-Ang):
   XX=           -172.7001   YY=            -35.0602   ZZ=            -35.2241
   XY=             -9.2649   XZ=             33.0096   YZ=             -2.2399
 Traceless Quadrupole moment (field-independent basis, Debye-Ang):
   XX=            -91.7053   YY=             45.9346   ZZ=             45.7707
   XY=             -9.2649   XZ=             33.0096   YZ=             -2.2399
 Octapole moment (field-independent basis, Debye-Ang**2):
  XXX=          -1391.8419  YYY=            -40.8800  ZZZ=            124.0761  XYY=           -188.2433
  XXY=            -12.6104  XXZ=            271.9876  XZZ=           -220.7509  YZZ=             -2.7902
  YYZ=             36.4592  XYZ=            -16.0258
 Hexadecapole moment (field-independent basis, Debye-Ang**3):
 XXXX=         -11946.3416 YYYY=           -176.5292 ZZZZ=           -432.2677 XXXY=            112.8482
 XXXZ=           2383.2714 YYYX=           -131.3687 YYYZ=             -8.2057 ZZZX=            826.3458
 ZZZY=            -21.7061 XXYY=          -1109.0983 XXZZ=          -1499.5403 YYZZ=            -89.8583
 XXYZ=           -111.0885 YYXZ=            235.9255 ZZXY=             10.3036
 N-N= 8.631014192996D+01 E-N=-1.607122305960D+03  KE= 5.977057117115D+02
  Exact polarizability:      46.577     -16.256      32.280     -14.349       9.372      29.936
 Approx polarizability:      55.589     -21.573      36.604     -19.052      12.432      33.505
   1 Symmetry operations used in ECPInt.
 ECPInt:  NShTT=     435 NPrTT=    1711 LenC2=     430 LenP2D=    1437.
 LDataN:  DoStor=T MaxTD1= 6 Len=  172
 D2PCM: PCM CHGder 2nd derivatives, FixD1E=F FixD2E=F DoIter=F DoCFld=F I1PDM=0
 Calling FoFJK, ICntrl=    100127 FMM=F ISym2X=0 I1Cent= 0 IOpClX= 0 NMat=1 NMatS=1 NMatT=0.
 Full mass-weighted force constant matrix:
 Low frequencies --- -516.1956  -57.1377  -23.8945   -0.0039   -0.0038   -0.0029
 Low frequencies ---   18.0443  231.4337  237.0669
 ******    1 imaginary frequencies (negative Signs) ****** 
 Diagonal vibrational polarizability:
       72.7522977      39.2245387      33.2146137
 Harmonic frequencies (cm**-1), IR intensities (KM/Mole), Raman scattering
 activities (A**4/AMU), depolarization ratios for plane and unpolarized
 incident light, reduced masses (AMU), force constants (mDyne/A),
 and normal coordinates:
                      1                      2                      3
                      A                      A                      A
 Frequencies --   -516.1901               231.2729               237.0063
 Red. masses --     11.9887                 4.3523                 4.3373
 Frc consts  --      1.8821                 0.1372                 0.1435
 IR Inten    --   1165.1708                26.9128                27.0139
  Atom  AN      X      Y      Z        X      Y      Z        X      Y      Z
     1   6     0.68  -0.44  -0.39     0.26   0.38   0.03     0.15  -0.14   0.42
     2  17    -0.11   0.07   0.06    -0.05  -0.08  -0.01    -0.03   0.03  -0.09
     3   1    -0.08   0.04   0.15     0.29   0.40   0.03     0.09  -0.10   0.48
     4   1    -0.07   0.16   0.04     0.22   0.44   0.08     0.19  -0.16   0.43
     5   1    -0.17   0.04   0.01     0.34   0.37  -0.00     0.20  -0.18   0.42
     6   9    -0.21   0.14   0.12    -0.11  -0.16  -0.01    -0.07   0.06  -0.17
                      4                      5                      6
                      A                      A                      A
 Frequencies --    289.4046               922.7597               932.7329
 Red. masses --     22.2333                 1.0297                 1.0298
 Frc consts  --      1.0971                 0.5166                 0.5279
 IR Inten    --      1.6251                 1.0764                 1.1506
  Atom  AN      X      Y      Z        X      Y      Z        X      Y      Z
     1   6     0.14  -0.08  -0.05     0.01  -0.02   0.03    -0.02  -0.02  -0.01
     2  17    -0.39   0.25   0.22    -0.00   0.01  -0.01     0.01   0.01   0.00
     3   1     0.09  -0.04  -0.01     0.62  -0.38  -0.39    -0.05   0.12   0.08
     4   1     0.10  -0.05  -0.03    -0.39   0.26   0.15    -0.45   0.35   0.32
     5   1     0.11  -0.07  -0.04    -0.20   0.18   0.06     0.58  -0.33  -0.32
     6   9     0.61  -0.40  -0.36     0.00  -0.01   0.01    -0.01  -0.01  -0.00
                      7                      8                      9
                      A                      A                      A
 Frequencies --   1045.9085              1323.8296              1324.5980
 Red. masses --      1.0600                 1.1000                 1.1003
 Frc consts  --      0.6832                 1.1358                 1.1374
 IR Inten    --      5.5497                 9.6036                 9.7306
  Atom  AN      X      Y      Z        X      Y      Z        X      Y      Z
     1   6    -0.01   0.00   0.00    -0.06  -0.07  -0.02    -0.02   0.04  -0.08
     2  17    -0.02   0.01   0.01     0.00   0.00   0.00     0.00  -0.00   0.00
     3   1     0.39  -0.24  -0.28     0.49   0.61   0.16     0.07   0.01  -0.13
     4   1     0.42  -0.33  -0.23     0.23  -0.11   0.31     0.34   0.08   0.61
     5   1     0.50  -0.28  -0.23    -0.08   0.31  -0.29    -0.15  -0.50   0.45
     6   9    -0.03   0.02   0.02     0.00   0.00   0.00     0.00  -0.00   0.00
                     10                     11                     12
                      A                      A                      A
 Frequencies --   3177.3241              3397.1776              3398.4498
 Red. masses --      1.0097                 1.1261                 1.1260
 Frc consts  --      6.0056                 7.6572                 7.6622
 IR Inten    --      1.3046                 0.0100                 0.0137
  Atom  AN      X      Y      Z        X      Y      Z        X      Y      Z
     1   6    -0.01   0.01   0.01    -0.01  -0.08   0.07    -0.07  -0.04  -0.07
     2  17     0.00  -0.00  -0.00     0.00   0.00  -0.00     0.00   0.00   0.00
     3   1     0.18  -0.26   0.48    -0.21   0.31  -0.58     0.13  -0.20   0.35
     4   1     0.28   0.48  -0.18     0.35   0.59  -0.22     0.18   0.31  -0.12
     5   1    -0.33  -0.29  -0.37     0.01   0.01   0.02     0.47   0.41   0.53
     6   9    -0.00   0.00   0.00     0.00   0.00  -0.00     0.00   0.00   0.00

 -------------------
 - Thermochemistry -
 -------------------
 Temperature   298.150 Kelvin.  Pressure   1.00000 Atm.
 Atom     1 has atomic number  6 and mass  12.00000
 Atom     2 has atomic number 17 and mass  34.96885
 Atom     3 has atomic number  1 and mass   1.00783
 Atom     4 has atomic number  1 and mass   1.00783
 Atom     5 has atomic number  1 and mass   1.00783
 Atom     6 has atomic number  9 and mass  18.99840
 Molecular mass:    68.99073 amu.
 Principal axes and moments of inertia in atomic units:
                           1         2         3
     Eigenvalues --    12.55356 776.35125 776.35286
           X            0.75420   0.44796   0.48012
           Y           -0.49219   0.86965  -0.03823
           Z           -0.43466  -0.20747   0.87637
 This molecule is an asymmetric top.
 Rotational symmetry number  1.
 Rotational temperatures (Kelvin)      6.89955     0.11157     0.11157
 Rotational constants (GHZ):         143.76331     2.32465     2.32464
    1 imaginary frequencies ignored.
 Zero-point vibrational energy      97378.8 (Joules/Mol)
                                   23.27409 (Kcal/Mol)
 Warning -- explicit consideration of   3 degrees of freedom as
           vibrations may cause significant error
 Vibrational temperatures:    332.75   341.00   416.39  1327.65  1341.99
          (Kelvin)           1504.83  1904.70  1905.80  4571.46  4887.78
                             4889.61
 
 Zero-point correction=                           0.037090 (Hartree/Particle)
 Thermal correction to Energy=                    0.041522
 Thermal correction to Enthalpy=                  0.042467
 Thermal correction to Gibbs Free Energy=         0.010300
 Sum of electronic and zero-point Energies=           -599.441465
 Sum of electronic and thermal Energies=              -599.437032
 Sum of electronic and thermal Enthalpies=            -599.436088
 Sum of electronic and thermal Free Energies=         -599.468255
 
                     E (Thermal)             CV                S
                      KCal/Mol        Cal/Mol-Kelvin    Cal/Mol-Kelvin
 Total                   26.056             12.762             67.701
 Electronic               0.000              0.000              0.000
 Translational            0.889              2.981             38.612
 Rotational               0.889              2.981             23.541
 Vibrational             24.278              6.800              5.549
 Vibration     1          0.653              1.793              1.869
 Vibration     2          0.656              1.784              1.825
 Vibration     3          0.686              1.693              1.477
                       Q            Log10(Q)             Ln(Q)
 Total Bot       0.183031D-04         -4.737476        -10.908441
 Total V=0       0.210161D+13         12.322553         28.373727
 Vib (Bot)       0.260974D-16        -16.583403        -38.184698
 Vib (Bot)    1  0.851151D+00         -0.069993         -0.161165
 Vib (Bot)    2  0.828445D+00         -0.081736         -0.188205
 Vib (Bot)    3  0.660995D+00         -0.179802         -0.414009
 Vib (V=0)       0.299657D+01          0.476625          1.097470
 Vib (V=0)    1  0.148715D+01          0.172354          0.396859
 Vib (V=0)    2  0.146764D+01          0.166619          0.383653
 Vib (V=0)    3  0.132880D+01          0.123461          0.284279
 Electronic      0.100000D+01          0.000000          0.000000
 Translational   0.225237D+08          7.352640         16.930079
 Rotational      0.311378D+05          4.493288         10.346177
 -------------------------------------------------------------------
 Center     Atomic                   Forces (Hartrees/Bohr)
 Number     Number              X              Y              Z
 -------------------------------------------------------------------
      1        6          -0.000000425    0.000001033    0.000001269
      2       17           0.000000785   -0.000002013    0.000001663
      3        1          -0.000013996   -0.000018317   -0.000007021
      4        1           0.000010194   -0.000000570    0.000020530
      5        1           0.000003672    0.000018549   -0.000014641
      6        9          -0.000000230    0.000001319   -0.000001800
 -------------------------------------------------------------------
 Cartesian Forces:  Max     0.000020530 RMS     0.000009700
 FormGI is forming the generalized inverse of G from B-inverse, IUseBI=4.

 GradGradGradGradGradGradGradGradGradGradGradGradGradGradGradGradGradGrad
 Berny optimization.
 Internal  Forces:  Max     0.000001941 RMS     0.000000732
 Search for a saddle point.
 Step number   1 out of a maximum of    2
 All quantities printed in internal units (Hartrees-Bohrs-Radians)
 Swapping is turned off.
 Second derivative matrix not updated -- analytic derivatives used.
 ITU=  0
     Eigenvalues ---   -0.01993   0.03386   0.03682   0.03999   0.04600
     Eigenvalues ---    0.04673   0.04960   0.06696   0.08253   0.38425
     Eigenvalues ---    0.39123   0.39155
 Eigenvectors required to have negative eigenvalues:
                          R5        R1        D4        D3        D2
   1                    0.58269  -0.49602  -0.42625  -0.22199   0.20425
                          D1        A3        A9        A8        A2
   1                   -0.19403   0.14714  -0.13086  -0.13050   0.12544
 Angle between quadratic step and forces=  79.74 degrees.
 Linear search not attempted -- option 19 set.
 Iteration  1 RMS(Cart)=  0.00000572 RMS(Int)=  0.00000000
 Iteration  2 RMS(Cart)=  0.00000000 RMS(Int)=  0.00000000
 Variable       Old X    -DE/DX   Delta X   Delta X   Delta X     New X
                                 (Linear)    (Quad)   (Total)
    R1        4.02913   0.00000   0.00000  -0.00001  -0.00001   4.02912
    R2        2.04712   0.00000   0.00000   0.00001   0.00001   2.04712
    R3        2.04725   0.00000   0.00000   0.00000   0.00000   2.04725
    R4        2.04702   0.00000   0.00000   0.00001   0.00001   2.04703
    R5        3.77340   0.00000   0.00000   0.00003   0.00003   3.77343
    A1        1.66694  -0.00000   0.00000   0.00000   0.00000   1.66694
    A2        1.66764  -0.00000   0.00000   0.00001   0.00001   1.66765
    A3        1.66660  -0.00000   0.00000   0.00000   0.00000   1.66660
    A4        2.07846  -0.00000   0.00000  -0.00001  -0.00001   2.07845
    A5        2.07835   0.00000   0.00000   0.00000   0.00000   2.07835
    A6        1.47518   0.00000   0.00000  -0.00000  -0.00000   1.47518
    A7        2.07859   0.00000   0.00000   0.00001   0.00001   2.07860
    A8        1.47369  -0.00000   0.00000  -0.00001  -0.00001   1.47368
    A9        1.47473   0.00000   0.00000  -0.00000  -0.00000   1.47473
   A10        3.14212   0.00000   0.00000   0.00000   0.00000   3.14212
   A11        3.14160  -0.00000   0.00000  -0.00000  -0.00000   3.14159
    D1       -1.73596   0.00000   0.00000  -0.00000  -0.00000  -1.73596
    D2        1.73533  -0.00000   0.00000   0.00001   0.00001   1.73534
    D3       -1.73619   0.00000   0.00000  -0.00001  -0.00001  -1.73620
    D4        2.81167   0.00000   0.00000  -0.00002  -0.00002   2.81165
    D5        2.09442  -0.00000   0.00000  -0.00001  -0.00001   2.09441
    D6       -2.09413  -0.00000   0.00000  -0.00000  -0.00000  -2.09414
    D7        2.09463   0.00000   0.00000   0.00001   0.00001   2.09464
         Item               Value     Threshold  Converged?
 Maximum Force            0.000002     0.000450     YES
 RMS     Force            0.000001     0.000300     YES
 Maximum Displacement     0.000014     0.001800     YES
 RMS     Displacement     0.000006     0.001200     YES
 Predicted change in Energy=-1.303899D-11
 Optimization completed.
    -- Stationary point found.
                           ----------------------------
                           !   Optimized Parameters   !
                           ! (Angstroms and Degrees)  !
 --------------------------                            --------------------------
 ! Name  Definition              Value          Derivative Info.                !
 --------------------------------------------------------------------------------
 ! R1    R(1,2)                  2.1321         -DE/DX =    0.0                 !
 ! R2    R(1,3)                  1.0833         -DE/DX =    0.0                 !
 ! R3    R(1,4)                  1.0834         -DE/DX =    0.0                 !
 ! R4    R(1,5)                  1.0832         -DE/DX =    0.0                 !
 ! R5    R(1,6)                  1.9968         -DE/DX =    0.0                 !
 ! A1    A(2,1,3)               95.5087         -DE/DX =    0.0                 !
 ! A2    A(2,1,4)               95.5488         -DE/DX =    0.0                 !
 ! A3    A(2,1,5)               95.4889         -DE/DX =    0.0                 !
 ! A4    A(3,1,4)              119.0868         -DE/DX =    0.0                 !
 ! A5    A(3,1,5)              119.0806         -DE/DX =    0.0                 !
 ! A6    A(3,1,6)               84.5216         -DE/DX =    0.0                 !
 ! A7    A(4,1,5)              119.0947         -DE/DX =    0.0                 !
 ! A8    A(4,1,6)               84.4363         -DE/DX =    0.0                 !
 ! A9    A(5,1,6)               84.4958         -DE/DX =    0.0                 !
 ! A10   L(2,1,6,3,-1)         180.0302         -DE/DX =    0.0                 !
 ! A11   L(2,1,6,3,-2)         180.0002         -DE/DX =    0.0                 !
 ! D1    D(2,1,4,3)            -99.463          -DE/DX =    0.0                 !
 ! D2    D(2,1,5,3)             99.4271         -DE/DX =    0.0                 !
 ! D3    D(2,1,5,4)            -99.4763         -DE/DX =    0.0                 !
 ! D4    D(3,1,5,4)            161.0966         -DE/DX =    0.0                 !
 ! D5    D(3,1,6,4)            120.0013         -DE/DX =    0.0                 !
 ! D6    D(3,1,6,5)           -119.9851         -DE/DX =    0.0                 !
 ! D7    D(4,1,6,5)            120.0136         -DE/DX =    0.0                 !
 --------------------------------------------------------------------------------
 GradGradGradGradGradGradGradGradGradGradGradGradGradGradGradGradGradGrad


 ----------------------------------------------------------------------

 Electric dipole moment (input orientation):
 (Debye = 10**-18 statcoulomb cm , SI units = C m)
                  (au)            (Debye)         (10**-30 SI)
   Tot        0.101624D+02      0.258303D+02      0.861606D+02
   x         -0.989331D+01     -0.251463D+02     -0.838789D+02
   y         -0.144984D+01     -0.368513D+01     -0.122923D+02
   z          0.181526D+01      0.461394D+01      0.153904D+02

 Dipole polarizability, Alpha (input orientation).
 (esu units = cm**3 , SI units = C**2 m**2 J**-1)
 Alpha(0;0):
               (au)            (10**-24 esu)      (10**-40 SI)
   iso        0.362643D+02      0.537381D+01      0.597917D+01
   aniso      0.437878D+02      0.648869D+01      0.721964D+01
   xx         0.465772D+02      0.690203D+01      0.767954D+01
   yx        -0.162557D+02     -0.240884D+01     -0.268020D+01
   yy         0.322796D+02      0.478334D+01      0.532218D+01
   zx        -0.143492D+02     -0.212634D+01     -0.236587D+01
   zy         0.937215D+01      0.138881D+01      0.154526D+01
   zz         0.299361D+02      0.443607D+01      0.493579D+01

 ----------------------------------------------------------------------

 Dipole orientation:
     6         -0.08653175         -0.24877879        -10.45316248
    17         -0.96158152         -2.80587861        -13.44137765
     1         -1.98198082          0.50430535        -10.27757658
     1          0.53845875         -1.68776227         -9.13788937
     1          1.31191460          0.81202084        -11.50641961
     9          0.73487559          2.14541805         -7.65464981

 Electric dipole moment (dipole orientation):
 (Debye = 10**-18 statcoulomb cm , SI units = C m)
                  (au)            (Debye)         (10**-30 SI)
   Tot        0.101624D+02      0.258303D+02      0.861606D+02
   x          0.000000D+00      0.000000D+00      0.000000D+00
   y          0.000000D+00      0.000000D+00      0.000000D+00
   z          0.101624D+02      0.258303D+02      0.861606D+02

 Dipole polarizability, Alpha (dipole orientation).
 (esu units = cm**3 , SI units = C**2 m**2 J**-1)
 Alpha(0;0):
               (au)            (10**-24 esu)      (10**-40 SI)
   iso        0.362643D+02      0.537381D+01      0.597917D+01
   aniso      0.437878D+02      0.648869D+01      0.721964D+01
   xx         0.237344D+02      0.351707D+01      0.391327D+01
   yx         0.604328D+01      0.895522D+00      0.996402D+00
   yy         0.393059D+02      0.582453D+01      0.648066D+01
   zx         0.705354D+01      0.104523D+01      0.116297D+01
   zy         0.206085D+02      0.305387D+01      0.339789D+01
   zz         0.457526D+02      0.677983D+01      0.754358D+01

 ----------------------------------------------------------------------
 Unable to Open any file for archive entry.
 1\1\GINC-DALE\Freq\RPBE1PBE\def2SVP\C1H3Cl1F1(1-)\THIJS\31-May-2024\0\
 \#N Geom=AllCheck Guess=TCheck SCRF=Check GenChk RPBE1PBE/def2SVP Freq
 \\TS_dOr2Us_ll_ad_0-5_0-1_optts_conf_g16\\-1,1\C,5.3916369632,0.665194
 1089,-1.0514379206\Cl,6.9998039557,-0.3844319476,-1.9777421271\H,5.057
 7330161,1.1617676882,-1.95445314\H,4.8685760844,-0.2214043013,-0.71377
 75894\H,6.0130545002,1.2091633185,-0.3504808155\F,3.8857954805,1.64777
 11333,-0.1829984074\\Version=ES64L-G16RevC.01\HF=-599.4785543\RMSD=7.9
 61e-10\RMSF=9.700e-06\ZeroPoint=0.0370896\Thermal=0.0415224\ETot=-599.
 4370319\HTot=-599.4360877\GTot=-599.4682547\Dipole=1.0270445,-0.670447
 9,-0.5925695\DipoleDeriv=1.8891702,-1.1508693,-1.0168143,-1.1510839,0.
 8742548,0.664265,-1.0167017,0.6638988,0.7104019,-1.3155782,0.4882061,0
 .4300889,0.4884758,-0.8847744,-0.2813855,0.4312049,-0.2816011,-0.81376
 39,-0.0230511,0.0905524,0.0369404,0.084302,0.0354746,-0.002761,0.06135
 24,-0.0224195,-0.0009481,-0.0347848,0.0311965,0.0810149,0.0594298,-0.0
 096388,-0.0323025,0.0803104,-0.0154434,0.0551024,-0.0485018,0.0642901,
 0.0487425,0.0416835,0.031424,-0.0729613,0.0230661,-0.0686455,0.0297171
 ,-1.4672542,0.4766242,0.4200276,0.4771928,-1.0467403,-0.2748546,0.4207
 679,-0.2757893,-0.9805095\Polar=46.5772036,-16.2556778,32.2795623,-14.
 3492221,9.3721509,29.9360608\Quadrupole=-68.1806529,34.1512487,34.0294
 042,-6.8882447,24.5418525,-1.6653111\PG=C01 [X(C1H3Cl1F1)]\NImag=1\\0.
 24850410,0.29006896,0.50480384,0.25655786,-0.16709758,0.54785246,0.014
 89573,-0.02434594,-0.02155455,0.03617948,-0.02435886,-0.00666317,0.013
 97845,-0.01592909,0.02244449,-0.02155365,0.01399955,-0.01018626,-0.013
 95765,0.00922806,0.02011248,-0.05493385,0.02982481,-0.10423700,-0.0128
 9137,0.01065427,0.00018623,0.06990273,0.03004398,-0.11058348,0.1403149
 2,0.00794761,-0.00574861,-0.00066516,-0.04731419,0.11135492,-0.1049601
 4,0.14086148,-0.27486734,0.01082889,-0.00916685,0.00249263,0.09126592,
 -0.13441933,0.28119283,-0.10192459,-0.15290819,0.03500474,-0.01356243,
 0.00152791,0.00830602,0.00671519,0.00824230,-0.00301385,0.11826809,-0.
 15365601,-0.26344473,0.09769568,0.01345058,0.00164012,-0.00803907,-0.0
 0509646,-0.00263659,-0.00130978,0.13947653,0.27238576,0.03501417,0.097
 29215,-0.07466730,0.00796604,-0.00093343,-0.00426023,0.01104706,0.0139
 6232,-0.00044516,-0.05100228,-0.08985092,0.07250450,-0.13154387,-0.116
 59939,-0.14219521,-0.00601517,0.01375403,0.01434926,-0.00031577,-0.003
 96769,-0.00072233,-0.00191675,-0.00157060,-0.00739120,0.15212296,-0.11
 598346,-0.12468674,-0.10006729,0.00451061,-0.00573603,-0.00625244,0.00
 780294,0.00920876,0.00843146,-0.00803848,-0.00325803,-0.01359551,0.102
 21225,0.12660344,-0.14146879,-0.10033869,-0.18418432,0.00401742,-0.004
 81509,-0.00425338,-0.00864574,-0.01173928,-0.00525657,0.00643064,0.005
 77054,0.00880748,0.13078412,0.11278989,0.18541902,0.02500248,-0.026040
 25,-0.02357584,-0.01860624,0.01435174,0.01266980,-0.00847694,0.0050480
 0,0.00660151,-0.00757951,0.00739596,0.00436621,-0.01233140,0.00949613,
 0.00888236,0.02199161,-0.02611462,0.00057428,0.01517583,0.01436623,-0.
 00593680,-0.00827095,0.00412863,-0.00159501,-0.00439697,0.01169993,-0.
 00468654,-0.00687461,0.00617141,-0.00213140,-0.00166736,-0.01025158,0.
 01377547,-0.02358944,0.01528309,-0.00394723,0.01269986,-0.00829113,-0.
 00390524,0.01038353,-0.00745347,-0.00311638,0.00427473,-0.00426645,-0.
 00193930,0.00517536,-0.00130611,-0.00053222,-0.00894404,0.00603406,0.0
 1344038\\0.00000043,-0.00000103,-0.00000127,-0.00000079,0.00000201,-0.
 00000166,0.00001400,0.00001832,0.00000702,-0.00001019,0.00000057,-0.00
 002053,-0.00000367,-0.00001855,0.00001464,0.00000023,-0.00000132,0.000
 00180\\\@
 The archive entry for this job was punched.


 CHARLIE BROWN.."I CAN'T GET THAT STUPID KITE IN THE
 AIR... I CAN'T... I C A N N O T..."
 LUCY.."OH COME NOW CHARLIE BROWN...THAT'S NO WAY TO TALK...
 THE TROUBLE WITH YOU IS YOU DON'T BELIEVE IN YOURSELF... YOU
 DON'T BELIEVE IN YOUR OWN ABILITIES...  YOU'VE GOT TO SAY TO
 YOURSELF...'I BELIEVE I CAN FLY THIS KITE.'... GO AHEAD SAY
 IT...."
 CHARLIE BROWN.."I BELIEVE THAT I CAN FLY THIS STUPID
 KITE.....I BELIEVE THAT I CAN FLY THIS KITE........
 I  A C T U A L L Y  B E L I E V E  T H A T  I  C A N ******"
 LUCY.."I'LL BET YOU TEN-TO-ONE YOU'RE WRONG......."    SCHULZ
 Job cpu time:       0 days  0 hours  0 minutes 48.3 seconds.
 Elapsed time:       0 days  0 hours  0 minutes 12.4 seconds.
 File lengths (MBytes):  RWF=     17 Int=      0 D2E=      0 Chk=      5 Scr=      1
 Normal termination of Gaussian 16 at Fri May 31 17:51:48 2024.
