
Host: Roberts-MacBook-Pro-5.local

Timers On : Tue Jun 18 01:23:49 2024
Timers Off: Tue Jun 18 01:23:52 2024

Wall Time:        2.14 seconds

                                                       Time (seconds)
Module                                       User      System        Wall        Calls

--------------------------------------------------------------------------------------

**************************************************************************************
