 Entering Gaussian System, Link 0=g16
 Input=Et3NH.com
 Output=Et3NH.log
 Initial command:
 /usr/local/Gaussian/G16C/g16/l1.exe "/home/heidi/Gau-290848.inp" -scrdir="/home/heidi/"
 Entering Link 1 = /usr/local/Gaussian/G16C/g16/l1.exe PID=    290849.
  
 Copyright (c) 1988-2019, Gaussian, Inc.  All Rights Reserved.
  
 This is part of the Gaussian(R) 16 program.  It is based on
 the Gaussian(R) 09 system (copyright 2009, Gaussian, Inc.),
 the Gaussian(R) 03 system (copyright 2003, Gaussian, Inc.),
 the Gaussian(R) 98 system (copyright 1998, Gaussian, Inc.),
 the Gaussian(R) 94 system (copyright 1995, Gaussian, Inc.),
 the Gaussian 92(TM) system (copyright 1992, Gaussian, Inc.),
 the Gaussian 90(TM) system (copyright 1990, Gaussian, Inc.),
 the Gaussian 88(TM) system (copyright 1988, Gaussian, Inc.),
 the Gaussian 86(TM) system (copyright 1986, Carnegie Mellon
 University), and the Gaussian 82(TM) system (copyright 1983,
 Carnegie Mellon University). Gaussian is a federally registered
 trademark of Gaussian, Inc.
  
 This software contains proprietary and confidential information,
 including trade secrets, belonging to Gaussian, Inc.
  
 This software is provided under written license and may be
 used, copied, transmitted, or stored only in accord with that
 written license.
  
 The following legend is applicable only to US Government
 contracts under FAR:
  
                    RESTRICTED RIGHTS LEGEND
  
 Use, reproduction and disclosure by the US Government is
 subject to restrictions as set forth in subparagraphs (a)
 and (c) of the Commercial Computer Software - Restricted
 Rights clause in FAR 52.227-19.
  
 Gaussian, Inc.
 340 Quinnipiac St., Bldg. 40, Wallingford CT 06492
  
  
 ---------------------------------------------------------------
 Warning -- This program may not be used in any manner that
 competes with the business of Gaussian, Inc. or will provide
 assistance to any competitor of Gaussian, Inc.  The licensee
 of this program is prohibited from giving any competitor of
 Gaussian, Inc. access to this program.  By using this program,
 the user acknowledges that Gaussian, Inc. is engaged in the
 business of creating and licensing software in the field of
 computational chemistry and represents and warrants to the
 licensee that it is not a competitor of Gaussian, Inc. and that
 it will not use this program in any manner prohibited above.
 ---------------------------------------------------------------
  

 Cite this work as:
 Gaussian 16, Revision C.01,
 M. J. Frisch, G. W. Trucks, H. B. Schlegel, G. E. Scuseria, 
 M. A. Robb, J. R. Cheeseman, G. Scalmani, V. Barone, 
 G. A. Petersson, H. Nakatsuji, X. Li, M. Caricato, A. V. Marenich, 
 J. Bloino, B. G. Janesko, R. Gomperts, B. Mennucci, H. P. Hratchian, 
 J. V. Ortiz, A. F. Izmaylov, J. L. Sonnenberg, D. Williams-Young, 
 F. Ding, F. Lipparini, F. Egidi, J. Goings, B. Peng, A. Petrone, 
 T. Henderson, D. Ranasinghe, V. G. Zakrzewski, J. Gao, N. Rega, 
 G. Zheng, W. Liang, M. Hada, M. Ehara, K. Toyota, R. Fukuda, 
 J. Hasegawa, M. Ishida, T. Nakajima, Y. Honda, O. Kitao, H. Nakai, 
 T. Vreven, K. Throssell, J. A. Montgomery, Jr., J. E. Peralta, 
 F. Ogliaro, M. J. Bearpark, J. J. Heyd, E. N. Brothers, K. N. Kudin, 
 V. N. Staroverov, T. A. Keith, R. Kobayashi, J. Normand, 
 K. Raghavachari, A. P. Rendell, J. C. Burant, S. S. Iyengar, 
 J. Tomasi, M. Cossi, J. M. Millam, M. Klene, C. Adamo, R. Cammi, 
 J. W. Ochterski, R. L. Martin, K. Morokuma, O. Farkas, 
 J. B. Foresman, and D. J. Fox, Gaussian, Inc., Wallingford CT, 2019.
 
 ******************************************
 Gaussian 16:  ES64L-G16RevC.01  3-Jul-2019
                19-May-2023 
 ******************************************
 %nprocshared=50
 Will use up to   50 processors via shared memory.
 %mem=100GB
 -----------------------------------------------------------------
 # opt freq=noraman wb97xd scrf=(smd,solvent=acetonitrile) def2svp
 -----------------------------------------------------------------
 1/18=20,19=15,26=3,38=1/1,3;
 2/9=110,12=2,17=6,18=5,40=1/2;
 3/5=43,7=101,11=2,25=1,30=1,70=32201,71=1,72=2,74=-58/1,2,3;
 4//1;
 5/5=2,38=5,53=2/2;
 6/7=2,8=2,9=2,10=2,28=1/1;
 7//1,2,3,16;
 1/18=20,19=15,26=3/3(2);
 2/9=110/2;
 99//99;
 2/9=110/2;
 3/5=43,7=101,11=2,25=1,30=1,70=32205,71=1,72=2,74=-58/1,2,3;
 4/5=5,16=3,69=1/1;
 5/5=2,38=5,53=2/2;
 7//1,2,3,16;
 1/18=20,19=15,26=3/3(-5);
 2/9=110/2;
 6/7=2,8=2,9=2,10=2,19=2,28=1/1;
 99/9=1/99;
 -------------------
 Title Card Required
 -------------------
 Symbolic Z-matrix:
 Charge =  1 Multiplicity = 1
 N                    -0.8105    0.6061    0.54329 
 C                    -0.20104   1.94289   0.49385 
 H                    -0.9686    2.68123   0.39084 
 H                     0.34493   2.11958   1.39696 
 C                    -0.00586  -0.32913  -0.25596 
 H                    -0.00678  -0.01612  -1.27915 
 H                     0.99859  -0.34055   0.11263 
 C                     0.75637   2.02638  -0.70948 
 H                     0.2104    1.84969  -1.61258 
 H                     1.19999   2.99942  -0.74546 
 H                     1.52393   1.28804  -0.60647 
 C                    -0.60723  -1.74298  -0.15113 
 H                    -1.61168  -1.73156  -0.51972 
 H                    -0.02154  -2.42373  -0.73289 
 H                    -0.60632  -2.056     0.87206 
 C                    -2.17424   0.66885  -0.00185 
 H                    -2.7742   -0.09354   0.44948 
 H                    -2.59875   1.62819   0.20878 
 C                    -2.12844   0.45116  -1.5257 
 H                    -1.70392  -0.50818  -1.73634 
 H                    -3.12109   0.49684  -1.92251 
 H                    -1.52848   1.21355  -1.97703 
 H                    -0.84476   0.29024   1.49148 
 

 GradGradGradGradGradGradGradGradGradGradGradGradGradGradGradGradGradGrad
 Berny optimization.
 Initialization pass.
                           ----------------------------
                           !    Initial Parameters    !
                           ! (Angstroms and Degrees)  !
 --------------------------                            --------------------------
 ! Name  Definition              Value          Derivative Info.                !
 --------------------------------------------------------------------------------
 ! R1    R(1,2)                  1.47           estimate D2E/DX2                !
 ! R2    R(1,5)                  1.47           estimate D2E/DX2                !
 ! R3    R(1,16)                 1.47           estimate D2E/DX2                !
 ! R4    R(1,23)                 1.0            estimate D2E/DX2                !
 ! R5    R(2,3)                  1.07           estimate D2E/DX2                !
 ! R6    R(2,4)                  1.07           estimate D2E/DX2                !
 ! R7    R(2,8)                  1.54           estimate D2E/DX2                !
 ! R8    R(5,6)                  1.07           estimate D2E/DX2                !
 ! R9    R(5,7)                  1.07           estimate D2E/DX2                !
 ! R10   R(5,12)                 1.54           estimate D2E/DX2                !
 ! R11   R(8,9)                  1.07           estimate D2E/DX2                !
 ! R12   R(8,10)                 1.07           estimate D2E/DX2                !
 ! R13   R(8,11)                 1.07           estimate D2E/DX2                !
 ! R14   R(12,13)                1.07           estimate D2E/DX2                !
 ! R15   R(12,14)                1.07           estimate D2E/DX2                !
 ! R16   R(12,15)                1.07           estimate D2E/DX2                !
 ! R17   R(16,17)                1.07           estimate D2E/DX2                !
 ! R18   R(16,18)                1.07           estimate D2E/DX2                !
 ! R19   R(16,19)                1.54           estimate D2E/DX2                !
 ! R20   R(19,20)                1.07           estimate D2E/DX2                !
 ! R21   R(19,21)                1.07           estimate D2E/DX2                !
 ! R22   R(19,22)                1.07           estimate D2E/DX2                !
 ! A1    A(2,1,5)              109.4712         estimate D2E/DX2                !
 ! A2    A(2,1,16)             109.4712         estimate D2E/DX2                !
 ! A3    A(2,1,23)             109.4712         estimate D2E/DX2                !
 ! A4    A(5,1,16)             109.4712         estimate D2E/DX2                !
 ! A5    A(5,1,23)             109.4712         estimate D2E/DX2                !
 ! A6    A(16,1,23)            109.4712         estimate D2E/DX2                !
 ! A7    A(1,2,3)              109.4712         estimate D2E/DX2                !
 ! A8    A(1,2,4)              109.4712         estimate D2E/DX2                !
 ! A9    A(1,2,8)              109.4712         estimate D2E/DX2                !
 ! A10   A(3,2,4)              109.4712         estimate D2E/DX2                !
 ! A11   A(3,2,8)              109.4712         estimate D2E/DX2                !
 ! A12   A(4,2,8)              109.4712         estimate D2E/DX2                !
 ! A13   A(1,5,6)              109.4712         estimate D2E/DX2                !
 ! A14   A(1,5,7)              109.4712         estimate D2E/DX2                !
 ! A15   A(1,5,12)             109.4712         estimate D2E/DX2                !
 ! A16   A(6,5,7)              109.4712         estimate D2E/DX2                !
 ! A17   A(6,5,12)             109.4712         estimate D2E/DX2                !
 ! A18   A(7,5,12)             109.4712         estimate D2E/DX2                !
 ! A19   A(2,8,9)              109.4712         estimate D2E/DX2                !
 ! A20   A(2,8,10)             109.4712         estimate D2E/DX2                !
 ! A21   A(2,8,11)             109.4712         estimate D2E/DX2                !
 ! A22   A(9,8,10)             109.4712         estimate D2E/DX2                !
 ! A23   A(9,8,11)             109.4712         estimate D2E/DX2                !
 ! A24   A(10,8,11)            109.4712         estimate D2E/DX2                !
 ! A25   A(5,12,13)            109.4712         estimate D2E/DX2                !
 ! A26   A(5,12,14)            109.4712         estimate D2E/DX2                !
 ! A27   A(5,12,15)            109.4712         estimate D2E/DX2                !
 ! A28   A(13,12,14)           109.4712         estimate D2E/DX2                !
 ! A29   A(13,12,15)           109.4712         estimate D2E/DX2                !
 ! A30   A(14,12,15)           109.4712         estimate D2E/DX2                !
 ! A31   A(1,16,17)            109.4712         estimate D2E/DX2                !
 ! A32   A(1,16,18)            109.4712         estimate D2E/DX2                !
 ! A33   A(1,16,19)            109.4712         estimate D2E/DX2                !
 ! A34   A(17,16,18)           109.4712         estimate D2E/DX2                !
 ! A35   A(17,16,19)           109.4712         estimate D2E/DX2                !
 ! A36   A(18,16,19)           109.4712         estimate D2E/DX2                !
 ! A37   A(16,19,20)           109.4712         estimate D2E/DX2                !
 ! A38   A(16,19,21)           109.4712         estimate D2E/DX2                !
 ! A39   A(16,19,22)           109.4712         estimate D2E/DX2                !
 ! A40   A(20,19,21)           109.4712         estimate D2E/DX2                !
 ! A41   A(20,19,22)           109.4712         estimate D2E/DX2                !
 ! A42   A(21,19,22)           109.4712         estimate D2E/DX2                !
 ! D1    D(5,1,2,3)            138.7409         estimate D2E/DX2                !
 ! D2    D(5,1,2,4)           -101.2591         estimate D2E/DX2                !
 ! D3    D(5,1,2,8)             18.7409         estimate D2E/DX2                !
 ! D4    D(16,1,2,3)            18.7409         estimate D2E/DX2                !
 ! D5    D(16,1,2,4)           138.7409         estimate D2E/DX2                !
 ! D6    D(16,1,2,8)          -101.2591         estimate D2E/DX2                !
 ! D7    D(23,1,2,3)          -101.2591         estimate D2E/DX2                !
 ! D8    D(23,1,2,4)            18.7409         estimate D2E/DX2                !
 ! D9    D(23,1,2,8)           138.7409         estimate D2E/DX2                !
 ! D10   D(2,1,5,6)            -62.6087         estimate D2E/DX2                !
 ! D11   D(2,1,5,7)             57.3913         estimate D2E/DX2                !
 ! D12   D(2,1,5,12)           177.3913         estimate D2E/DX2                !
 ! D13   D(16,1,5,6)            57.3913         estimate D2E/DX2                !
 ! D14   D(16,1,5,7)           177.3913         estimate D2E/DX2                !
 ! D15   D(16,1,5,12)          -62.6087         estimate D2E/DX2                !
 ! D16   D(23,1,5,6)           177.3913         estimate D2E/DX2                !
 ! D17   D(23,1,5,7)           -62.6087         estimate D2E/DX2                !
 ! D18   D(23,1,5,12)           57.3913         estimate D2E/DX2                !
 ! D19   D(2,1,16,17)         -151.816          estimate D2E/DX2                !
 ! D20   D(2,1,16,18)          -31.816          estimate D2E/DX2                !
 ! D21   D(2,1,16,19)           88.184          estimate D2E/DX2                !
 ! D22   D(5,1,16,17)           88.184          estimate D2E/DX2                !
 ! D23   D(5,1,16,18)         -151.816          estimate D2E/DX2                !
 ! D24   D(5,1,16,19)          -31.816          estimate D2E/DX2                !
 ! D25   D(23,1,16,17)         -31.816          estimate D2E/DX2                !
 ! D26   D(23,1,16,18)          88.184          estimate D2E/DX2                !
 ! D27   D(23,1,16,19)        -151.816          estimate D2E/DX2                !
 ! D28   D(1,2,8,9)             60.0            estimate D2E/DX2                !
 ! D29   D(1,2,8,10)          -180.0            estimate D2E/DX2                !
 ! D30   D(1,2,8,11)           -60.0            estimate D2E/DX2                !
 ! D31   D(3,2,8,9)            -60.0            estimate D2E/DX2                !
 ! D32   D(3,2,8,10)            60.0            estimate D2E/DX2                !
 ! D33   D(3,2,8,11)           180.0            estimate D2E/DX2                !
 ! D34   D(4,2,8,9)            180.0            estimate D2E/DX2                !
 ! D35   D(4,2,8,10)           -60.0            estimate D2E/DX2                !
 ! D36   D(4,2,8,11)            60.0            estimate D2E/DX2                !
 ! D37   D(1,5,12,13)           60.0            estimate D2E/DX2                !
 ! D38   D(1,5,12,14)          180.0            estimate D2E/DX2                !
 ! D39   D(1,5,12,15)          -60.0            estimate D2E/DX2                !
 ! D40   D(6,5,12,13)          -60.0            estimate D2E/DX2                !
 ! D41   D(6,5,12,14)           60.0            estimate D2E/DX2                !
 ! D42   D(6,5,12,15)          180.0            estimate D2E/DX2                !
 ! D43   D(7,5,12,13)          180.0            estimate D2E/DX2                !
 ! D44   D(7,5,12,14)          -60.0            estimate D2E/DX2                !
 ! D45   D(7,5,12,15)           60.0            estimate D2E/DX2                !
 ! D46   D(1,16,19,20)          60.0            estimate D2E/DX2                !
 ! D47   D(1,16,19,21)         180.0            estimate D2E/DX2                !
 ! D48   D(1,16,19,22)         -60.0            estimate D2E/DX2                !
 ! D49   D(17,16,19,20)        -60.0            estimate D2E/DX2                !
 ! D50   D(17,16,19,21)         60.0            estimate D2E/DX2                !
 ! D51   D(17,16,19,22)        180.0            estimate D2E/DX2                !
 ! D52   D(18,16,19,20)        180.0            estimate D2E/DX2                !
 ! D53   D(18,16,19,21)        -60.0            estimate D2E/DX2                !
 ! D54   D(18,16,19,22)         60.0            estimate D2E/DX2                !
 --------------------------------------------------------------------------------
 Trust Radius=3.00D-01 FncErr=1.00D-07 GrdErr=1.00D-06 EigMax=2.50D+02 EigMin=1.00D-04
 Number of steps in this run=    128 maximum allowed number of steps=    138.
 GradGradGradGradGradGradGradGradGradGradGradGradGradGradGradGradGradGrad

                          Input orientation:                          
 ---------------------------------------------------------------------
 Center     Atomic      Atomic             Coordinates (Angstroms)
 Number     Number       Type             X           Y           Z
 ---------------------------------------------------------------------
      1          7           0       -0.810500    0.606098    0.543293
      2          6           0       -0.201040    1.942891    0.493853
      3          1           0       -0.968599    2.681228    0.390842
      4          1           0        0.344929    2.119584    1.396958
      5          6           0       -0.005861   -0.329133   -0.255956
      6          1           0       -0.006780   -0.016115   -1.279146
      7          1           0        0.998585   -0.340550    0.112633
      8          6           0        0.756367    2.026379   -0.709476
      9          1           0        0.210398    1.849685   -1.612581
     10          1           0        1.199987    2.999418   -0.745463
     11          1           0        1.523926    1.288042   -0.606465
     12          6           0       -0.607234   -1.742979   -0.151127
     13          1           0       -1.611680   -1.731563   -0.519715
     14          1           0       -0.021545   -2.423726   -0.732892
     15          1           0       -0.606315   -2.055997    0.872064
     16          6           0       -2.174237    0.668854   -0.001854
     17          1           0       -2.774196   -0.093542    0.449478
     18          1           0       -2.598751    1.628187    0.208785
     19          6           0       -2.128438    0.451157   -1.525701
     20          1           0       -1.703924   -0.508176   -1.736339
     21          1           0       -3.121090    0.496837   -1.922508
     22          1           0       -1.528478    1.213554   -1.977032
     23          1           0       -0.844761    0.290236    1.491479
 ---------------------------------------------------------------------
                    Distance matrix (angstroms):
                    1          2          3          4          5
     1  N    0.000000
     2  C    1.470000   0.000000
     3  H    2.086720   1.070000   0.000000
     4  H    2.086720   1.070000   1.747303   0.000000
     5  C    1.470000   2.400500   3.226063   2.975129   0.000000
     6  H    2.086720   2.649334   3.315059   3.441867   1.070000
     7  H    2.086720   2.607399   3.616401   2.851143   1.070000
     8  C    2.457987   1.540000   2.148263   2.148263   2.516964
     9  H    2.690081   2.148263   2.468846   3.024610   2.575742
    10  H    3.380966   2.148263   2.468846   2.468846   3.573925
    11  H    2.690081   2.148263   3.024610   2.468846   2.253521
    12  C    2.457987   3.763858   4.471904   4.268791   1.540000
    13  H    2.690081   4.064337   4.551416   4.725811   2.148263
    14  H    3.380966   4.539214   5.312273   5.031126   2.148263
    15  H    2.690081   4.037127   4.775367   4.314610   2.148263
    16  C    1.470000   2.400500   2.378533   3.226063   2.400500
    17  H    2.086720   3.281792   3.311038   3.940125   2.866500
    18  H    2.086720   2.435019   1.949214   3.212238   3.281792
    19  C    2.457987   3.165238   3.160946   4.176497   2.593538
    20  H    2.690081   3.638701   3.903575   4.573890   2.259869
    21  H    3.380966   4.056669   3.841402   5.066107   3.628260
    22  H    2.690081   2.898155   2.841542   3.964134   2.767734
    23  H    1.000000   2.034920   2.635067   2.184218   2.034920
                    6          7          8          9         10
     6  H    0.000000
     7  H    1.747303   0.000000
     8  C    2.253597   2.517317   0.000000
     9  H    1.907762   2.897366   1.070000   0.000000
    10  H    3.291588   3.454313   1.070000   1.747303   0.000000
    11  H    2.120468   1.856177   1.070000   1.747303   1.747303
    12  C    2.148263   2.148263   4.047125   3.963787   5.109758
    13  H    2.468846   3.024610   4.445872   4.164092   5.508050
    14  H    2.468846   2.468846   4.517646   4.369175   5.559028
    15  H    3.024610   2.468846   4.585190   4.700514   5.606813
    16  C    2.607399   3.331486   3.306364   3.110513   4.167718
    17  H    3.263852   3.795834   4.278097   4.115340   5.175754
    18  H    3.411155   4.101950   3.501224   3.355257   4.149852
    19  C    2.186450   3.617901   3.386686   2.726460   4.263897
    20  H    1.825225   3.278773   3.678511   3.039647   4.660231
    21  H    3.221173   4.670625   4.341153   3.609026   5.130308
    22  H    2.077185   3.628772   2.736403   1.887109   3.485771
    23  H    2.910744   2.386846   3.228313   3.630486   4.065043
                   11         12         13         14         15
    11  H    0.000000
    12  C    3.733130   0.000000
    13  H    4.354028   1.070000   0.000000
    14  H    4.022646   1.070000   1.747303   0.000000
    15  H    4.231615   1.070000   1.747303   1.747303   0.000000
    16  C    3.798072   2.880056   2.519256   3.838301   3.262963
    17  H    4.636555   2.788744   2.230222   3.795372   2.954575
    18  H    4.216253   3.931976   3.576722   4.893541   4.240631
    19  C    3.858125   3.002957   2.458315   3.651369   3.788398
    20  H    3.862904   2.289185   1.727819   2.739825   3.225564
    21  H    4.892253   3.804476   3.035112   4.421770   4.544302
    22  H    3.346815   3.594956   3.287006   4.128987   4.433700
    23  H    3.317779   2.624602   2.953090   3.604317   2.438307
                   16         17         18         19         20
    16  C    0.000000
    17  H    1.070000   0.000000
    18  H    1.070000   1.747303   0.000000
    19  C    1.540000   2.148263   2.148263   0.000000
    20  H    2.148263   2.468846   3.024610   1.070000   0.000000
    21  H    2.148263   2.468846   2.468846   1.070000   1.747303
    22  H    2.148263   3.024610   2.468846   1.070000   1.747303
    23  H    2.034920   2.226157   2.551842   3.282849   3.434302
                   21         22         23
    21  H    0.000000
    22  H    1.747303   0.000000
    23  H    4.108487   3.653841   0.000000
 Stoichiometry    C6H16N(1+)
 Framework group  C1[X(C6H16N)]
 Deg. of freedom    63
 Full point group                 C1      NOp   1
 Largest Abelian subgroup         C1      NOp   1
 Largest concise Abelian subgroup C1      NOp   1
                         Standard orientation:                         
 ---------------------------------------------------------------------
 Center     Atomic      Atomic             Coordinates (Angstroms)
 Number     Number       Type             X           Y           Z
 ---------------------------------------------------------------------
      1          7           0       -0.125220   -0.091775   -0.797791
      2          6           0       -1.583453    0.012277   -0.644072
      3          1           0       -1.884435    1.030347   -0.777650
      4          1           0       -2.064065   -0.600902   -1.377506
      5          6           0        0.411316   -1.003238    0.223122
      6          1           0        0.221359   -0.600507    1.196068
      7          1           0       -0.063106   -1.958116    0.133504
      8          6           0       -1.986215   -0.461458    0.764813
      9          1           0       -1.505604    0.151721    1.498246
     10          1           0       -3.047650   -0.385720    0.876703
     11          1           0       -1.685233   -1.479528    0.898391
     12          6           0        1.929609   -1.163426    0.021319
     13          1           0        2.404031   -0.208548    0.110937
     14          1           0        2.320149   -1.826872    0.764433
     15          1           0        2.119566   -1.566157   -0.951627
     16          6           0        0.480753    1.237580   -0.634964
     17          1           0        1.389944    1.286378   -1.197006
     18          1           0       -0.198154    1.984857   -0.989310
     19          6           0        0.784147    1.484484    0.854530
     20          1           0        1.463054    0.737206    1.208876
     21          1           0        1.225229    2.452109    0.973050
     22          1           0       -0.125044    1.435686    1.416571
     23          1           0        0.089558   -0.446838   -1.707626
 ---------------------------------------------------------------------
 Rotational constants (GHZ):           3.1885828           2.1724217           1.7878933
 Standard basis: def2SVP (5D, 7F)
 There are   185 symmetry adapted cartesian basis functions of A   symmetry.
 There are   178 symmetry adapted basis functions of A   symmetry.
   178 basis functions,   287 primitive gaussians,   185 cartesian basis functions
    29 alpha electrons       29 beta electrons
       nuclear repulsion energy       369.0254608148 Hartrees.
 NAtoms=   23 NActive=   23 NUniq=   23 SFac= 1.00D+00 NAtFMM=   60 NAOKFM=F Big=F
 Integral buffers will be    131072 words long.
 Raffenetti 2 integral format.
 Two-electron integral symmetry is turned on.
 Nuclear repulsion after empirical dispersion term =      369.0081229665 Hartrees.
 ------------------------------------------------------------------------------
 Polarizable Continuum Model (PCM)
 =================================
 Model                : PCM.
 Atomic radii         : SMD-Coulomb.
 Polarization charges : Total charges.
 Charge compensation  : None.
 Solution method      : On-the-fly selection.
 Cavity type          : VdW (van der Waals Surface) (Alpha=1.000).
 Cavity algorithm     : GePol (No added spheres)
                        Default sphere list used, NSphG=   23.
                        Lebedev-Laikov grids with approx.  5.0 points / Ang**2.
                        Smoothing algorithm: York/Karplus (Gamma=1.0000).
                        Polarization charges: spherical gaussians, with
                                              point-specific exponents (IZeta= 3).
                        Self-potential: point-specific (ISelfS= 7).
                        Self-field    : sphere-specific E.n sum rule (ISelfD= 2).
 1st derivatives      : Analytical E(r).r(x)/FMM algorithm (CHGder, D1EAlg=3).
                        Cavity 1st derivative terms included.
 Solvent              : Acetonitrile, Eps=  35.688000 Eps(inf)=   1.806874
 ------------------------------------------------------------------------------
 ------------------------------------------------------------------------------
 Atomic radii for non-electrostatic terms: SMD-CDS.
 ------------------------------------------------------------------------------
 Nuclear repulsion after PCM non-electrostatic terms =      369.0067139582 Hartrees.
 One-electron integrals computed using PRISM.
   1 Symmetry operations used in ECPInt.
 ECPInt:  NShTT=    4095 NPrTT=   13669 LenC2=    4089 LenP2D=   11645.
 LDataN:  DoStor=T MaxTD1= 4 Len=   56
 NBasis=   178 RedAO= T EigKep=  1.63D-03  NBF=   178
 NBsUse=   178 1.00D-06 EigRej= -1.00D+00 NBFU=   178
 ExpMin= 1.22D-01 ExpMax= 1.71D+03 ExpMxC= 2.58D+02 IAcc=3 IRadAn=         5 AccDes= 0.00D+00
 Harris functional with IExCor= 4639 and IRadAn=       5 diagonalized for initial guess.
 HarFok:  IExCor= 4639 AccDes= 0.00D+00 IRadAn=         5 IDoV= 1 UseB2=F ITyADJ=14
 ICtDFT=  3500011 ScaDFX=  1.000000  1.000000  1.000000  1.000000
 FoFCou: FMM=F IPFlag=           0 FMFlag=      100000 FMFlg1=           0
         NFxFlg=           0 DoJE=T BraDBF=F KetDBF=T FulRan=T
         wScrn=  0.000000 ICntrl=       500 IOpCl=  0 I1Cent=   200000004 NGrid=           0
         NMat0=    1 NMatS0=      1 NMatT0=    0 NMatD0=    1 NMtDS0=    0 NMtDT0=    0
 Petite list used in FoFCou.
 Requested convergence on RMS density matrix=1.00D-08 within 128 cycles.
 Requested convergence on MAX density matrix=1.00D-06.
 Requested convergence on             energy=1.00D-06.
 No special actions if energy rises.
 Inv3:  Mode=1 IEnd=     5614272.
 Iteration    1 A*A^-1 deviation from unit magnitude is 5.00D-15 for   1354.
 Iteration    1 A*A^-1 deviation from orthogonality  is 1.82D-15 for   1337    268.
 Iteration    1 A^-1*A deviation from unit magnitude is 5.00D-15 for   1354.
 Iteration    1 A^-1*A deviation from orthogonality  is 1.05D-14 for   1258    860.
 Error on total polarization charges =  0.03325
 SCF Done:  E(RwB97XD) =  -292.557208490     A.U. after   11 cycles
            NFock= 11  Conv=0.42D-08     -V/T= 2.0099
 SMD-CDS (non-electrostatic) energy       (kcal/mol) =      -0.88
 (included in total energy above)

 **********************************************************************

            Population analysis using the SCF Density.

 **********************************************************************

 Orbital symmetries:
       Occupied  (A) (A) (A) (A) (A) (A) (A) (A) (A) (A) (A) (A)
                 (A) (A) (A) (A) (A) (A) (A) (A) (A) (A) (A) (A)
                 (A) (A) (A) (A) (A)
       Virtual   (A) (A) (A) (A) (A) (A) (A) (A) (A) (A) (A) (A)
                 (A) (A) (A) (A) (A) (A) (A) (A) (A) (A) (A) (A)
                 (A) (A) (A) (A) (A) (A) (A) (A) (A) (A) (A) (A)
                 (A) (A) (A) (A) (A) (A) (A) (A) (A) (A) (A) (A)
                 (A) (A) (A) (A) (A) (A) (A) (A) (A) (A) (A) (A)
                 (A) (A) (A) (A) (A) (A) (A) (A) (A) (A) (A) (A)
                 (A) (A) (A) (A) (A) (A) (A) (A) (A) (A) (A) (A)
                 (A) (A) (A) (A) (A) (A) (A) (A) (A) (A) (A) (A)
                 (A) (A) (A) (A) (A) (A) (A) (A) (A) (A) (A) (A)
                 (A) (A) (A) (A) (A) (A) (A) (A) (A) (A) (A) (A)
                 (A) (A) (A) (A) (A) (A) (A) (A) (A) (A) (A) (A)
                 (A) (A) (A) (A) (A) (A) (A) (A) (A) (A) (A) (A)
                 (A) (A) (A) (A) (A)
 The electronic state is 1-A.
 Alpha  occ. eigenvalues --  -14.56345 -10.34350 -10.34217 -10.34000 -10.28939
 Alpha  occ. eigenvalues --  -10.28905 -10.28823  -1.12988  -0.89135  -0.87780
 Alpha  occ. eigenvalues --   -0.85478  -0.76562  -0.74169  -0.70922  -0.65714
 Alpha  occ. eigenvalues --   -0.61902  -0.60145  -0.57589  -0.53287  -0.51422
 Alpha  occ. eigenvalues --   -0.50247  -0.49009  -0.47844  -0.46511  -0.46070
 Alpha  occ. eigenvalues --   -0.45461  -0.44281  -0.43648  -0.42462
 Alpha virt. eigenvalues --    0.12590   0.14489   0.16108   0.17131   0.18176
 Alpha virt. eigenvalues --    0.19838   0.20291   0.21218   0.21800   0.22217
 Alpha virt. eigenvalues --    0.22844   0.23724   0.24636   0.25515   0.26128
 Alpha virt. eigenvalues --    0.27480   0.28435   0.29895   0.30320   0.32652
 Alpha virt. eigenvalues --    0.34421   0.36445   0.46653   0.47639   0.50753
 Alpha virt. eigenvalues --    0.52194   0.53156   0.54077   0.54858   0.57729
 Alpha virt. eigenvalues --    0.60024   0.62801   0.65422   0.66715   0.68467
 Alpha virt. eigenvalues --    0.69339   0.71360   0.72917   0.73906   0.74038
 Alpha virt. eigenvalues --    0.75150   0.76302   0.76910   0.77601   0.78215
 Alpha virt. eigenvalues --    0.78697   0.79241   0.79599   0.80802   0.81618
 Alpha virt. eigenvalues --    0.82381   0.82491   0.82958   0.84553   0.87277
 Alpha virt. eigenvalues --    0.89280   0.96199   0.96954   1.00446   1.04571
 Alpha virt. eigenvalues --    1.06054   1.10105   1.14226   1.19856   1.22960
 Alpha virt. eigenvalues --    1.27234   1.30153   1.36609   1.38155   1.43070
 Alpha virt. eigenvalues --    1.43835   1.44649   1.47095   1.50052   1.55141
 Alpha virt. eigenvalues --    1.59125   1.64081   1.65761   1.68550   1.69532
 Alpha virt. eigenvalues --    1.73225   1.78858   1.80096   1.81849   1.83389
 Alpha virt. eigenvalues --    1.85501   1.86467   1.87521   1.88023   1.88803
 Alpha virt. eigenvalues --    1.91109   1.92098   1.93003   1.93139   1.95650
 Alpha virt. eigenvalues --    1.97281   1.97992   1.99717   2.02295   2.03997
 Alpha virt. eigenvalues --    2.06118   2.06909   2.08317   2.09978   2.12477
 Alpha virt. eigenvalues --    2.13245   2.14761   2.17120   2.18400   2.20679
 Alpha virt. eigenvalues --    2.24025   2.29030   2.30978   2.34712   2.40922
 Alpha virt. eigenvalues --    2.45834   2.46358   2.47725   2.49255   2.50756
 Alpha virt. eigenvalues --    2.51409   2.55733   2.58111   2.61241   2.65603
 Alpha virt. eigenvalues --    2.68275   2.70140   2.73067   2.76390   2.81665
 Alpha virt. eigenvalues --    2.82980   2.87910   2.89637   2.90322   2.97734
 Alpha virt. eigenvalues --    3.01778   3.03229   3.04111   3.05194   3.06596
 Alpha virt. eigenvalues --    3.09480   3.11919   3.14811   3.16252   3.18212
 Alpha virt. eigenvalues --    3.21301   3.25754   3.27757   3.45452
          Condensed to atoms (all electrons):
               1          2          3          4          5          6
     1  N    6.336977   0.246502  -0.020657  -0.011457   0.284020  -0.003092
     2  C    0.246502   4.622242   0.393130   0.392890  -0.053984  -0.021548
     3  H   -0.020657   0.393130   0.578442  -0.018105   0.003372   0.000937
     4  H   -0.011457   0.392890  -0.018105   0.575474  -0.001065  -0.000297
     5  C    0.284020  -0.053984   0.003372  -0.001065   4.706011   0.402885
     6  H   -0.003092  -0.021548   0.000937  -0.000297   0.402885   0.575649
     7  H   -0.015853  -0.004478  -0.000210   0.002513   0.404674  -0.018169
     8  C   -0.044069   0.442851  -0.010714  -0.015586   0.008955   0.018986
     9  H   -0.003407  -0.010869  -0.011534   0.007102  -0.008013  -0.007726
    10  H    0.005063  -0.017305  -0.003051  -0.004282   0.000488   0.000706
    11  H   -0.011291  -0.011171   0.005783  -0.009261   0.007196  -0.006467
    12  C   -0.047474   0.011122  -0.000278  -0.000261   0.393745  -0.024880
    13  H   -0.008344  -0.000041  -0.000025   0.000018  -0.019448  -0.009177
    14  H    0.004302  -0.000184   0.000016   0.000001  -0.007812  -0.004138
    15  H   -0.001808  -0.000775   0.000005  -0.000020  -0.016046   0.006147
    16  C    0.243470  -0.029351   0.001010   0.002923  -0.038811  -0.026507
    17  H   -0.009812   0.004448   0.001096  -0.000370  -0.010471   0.000811
    18  H   -0.018003  -0.006727  -0.001180   0.001169   0.006180   0.000328
    19  C   -0.047446  -0.006485  -0.003864   0.000003   0.008166   0.025804
    20  H   -0.010342   0.000194  -0.000045   0.000009   0.010246  -0.010444
    21  H    0.005134  -0.000610  -0.000128   0.000016   0.000182   0.000580
    22  H   -0.003961   0.006091   0.002095  -0.000204  -0.009431  -0.002864
    23  H    0.349378  -0.012925   0.000943  -0.009571  -0.011467   0.005242
               7          8          9         10         11         12
     1  N   -0.015853  -0.044069  -0.003407   0.005063  -0.011291  -0.047474
     2  C   -0.004478   0.442851  -0.010869  -0.017305  -0.011171   0.011122
     3  H   -0.000210  -0.010714  -0.011534  -0.003051   0.005783  -0.000278
     4  H    0.002513  -0.015586   0.007102  -0.004282  -0.009261  -0.000261
     5  C    0.404674   0.008955  -0.008013   0.000488   0.007196   0.393745
     6  H   -0.018169   0.018986  -0.007726   0.000706  -0.006467  -0.024880
     7  H    0.576228  -0.012490   0.000627   0.000308  -0.006605  -0.019086
     8  C   -0.012490   4.490946   0.399036   0.391907   0.394410   0.002941
     9  H    0.000627   0.399036   0.619148  -0.013540  -0.020682   0.000290
    10  H    0.000308   0.391907  -0.013540   0.597429  -0.015787  -0.000116
    11  H   -0.006605   0.394410  -0.020682  -0.015787   0.611765   0.001545
    12  C   -0.019086   0.002941   0.000290  -0.000116   0.001545   4.530139
    13  H    0.005994  -0.000198   0.000148   0.000002  -0.000008   0.404419
    14  H   -0.004111   0.000039   0.000008  -0.000001   0.000023   0.393119
    15  H   -0.006776   0.000141  -0.000063   0.000006  -0.000099   0.393977
    16  C    0.009112  -0.008638  -0.001079  -0.000225   0.001288   0.001125
    17  H   -0.000168  -0.000291  -0.000225   0.000019   0.000021   0.008210
    18  H   -0.000237  -0.001150   0.001048  -0.000070  -0.000070  -0.000040
    19  C   -0.000400  -0.002288   0.000481   0.000315  -0.000807  -0.038069
    20  H    0.000651  -0.001177   0.000312  -0.000037  -0.000002  -0.014258
    21  H   -0.000058   0.000482  -0.000202   0.000007  -0.000037   0.000563
    22  H    0.000422  -0.005825   0.001485  -0.000063   0.000425   0.002056
    23  H   -0.006029   0.005041  -0.000511  -0.000065  -0.000121  -0.005720
              13         14         15         16         17         18
     1  N   -0.008344   0.004302  -0.001808   0.243470  -0.009812  -0.018003
     2  C   -0.000041  -0.000184  -0.000775  -0.029351   0.004448  -0.006727
     3  H   -0.000025   0.000016   0.000005   0.001010   0.001096  -0.001180
     4  H    0.000018   0.000001  -0.000020   0.002923  -0.000370   0.001169
     5  C   -0.019448  -0.007812  -0.016046  -0.038811  -0.010471   0.006180
     6  H   -0.009177  -0.004138   0.006147  -0.026507   0.000811   0.000328
     7  H    0.005994  -0.004111  -0.006776   0.009112  -0.000168  -0.000237
     8  C   -0.000198   0.000039   0.000141  -0.008638  -0.000291  -0.001150
     9  H    0.000148   0.000008  -0.000063  -0.001079  -0.000225   0.001048
    10  H    0.000002  -0.000001   0.000006  -0.000225   0.000019  -0.000070
    11  H   -0.000008   0.000023  -0.000099   0.001288   0.000021  -0.000070
    12  C    0.404419   0.393119   0.393977   0.001125   0.008210  -0.000040
    13  H    0.594239  -0.015974  -0.017644   0.020754  -0.002528  -0.000114
    14  H   -0.015974   0.581175  -0.012432  -0.000332   0.000010  -0.000009
    15  H   -0.017644  -0.012432   0.596608  -0.003946   0.000118   0.000054
    16  C    0.020754  -0.000332  -0.003946   4.658252   0.392913   0.394333
    17  H   -0.002528   0.000010   0.000118   0.392913   0.572553  -0.016566
    18  H   -0.000114  -0.000009   0.000054   0.394333  -0.016566   0.572316
    19  C   -0.021159   0.000288   0.002041   0.420123  -0.015859  -0.010356
    20  H    0.011352   0.001805  -0.000291  -0.012817  -0.010775   0.005955
    21  H   -0.000447   0.000006   0.000002  -0.014821  -0.003952  -0.003647
    22  H    0.001040  -0.000035  -0.000162  -0.013581   0.006516  -0.009476
    23  H   -0.001546   0.000066   0.005231  -0.015231  -0.007071  -0.001142
              19         20         21         22         23
     1  N   -0.047446  -0.010342   0.005134  -0.003961   0.349378
     2  C   -0.006485   0.000194  -0.000610   0.006091  -0.012925
     3  H   -0.003864  -0.000045  -0.000128   0.002095   0.000943
     4  H    0.000003   0.000009   0.000016  -0.000204  -0.009571
     5  C    0.008166   0.010246   0.000182  -0.009431  -0.011467
     6  H    0.025804  -0.010444   0.000580  -0.002864   0.005242
     7  H   -0.000400   0.000651  -0.000058   0.000422  -0.006029
     8  C   -0.002288  -0.001177   0.000482  -0.005825   0.005041
     9  H    0.000481   0.000312  -0.000202   0.001485  -0.000511
    10  H    0.000315  -0.000037   0.000007  -0.000063  -0.000065
    11  H   -0.000807  -0.000002  -0.000037   0.000425  -0.000121
    12  C   -0.038069  -0.014258   0.000563   0.002056  -0.005720
    13  H   -0.021159   0.011352  -0.000447   0.001040  -0.001546
    14  H    0.000288   0.001805   0.000006  -0.000035   0.000066
    15  H    0.002041  -0.000291   0.000002  -0.000162   0.005231
    16  C    0.420123  -0.012817  -0.014821  -0.013581  -0.015231
    17  H   -0.015859  -0.010775  -0.003952   0.006516  -0.007071
    18  H   -0.010356   0.005955  -0.003647  -0.009476  -0.001142
    19  C    4.549777   0.400708   0.391216   0.398172   0.006357
    20  H    0.400708   0.606972  -0.013708  -0.021185  -0.000303
    21  H    0.391216  -0.013708   0.584681  -0.010165  -0.000077
    22  H    0.398172  -0.021185  -0.010165   0.601849  -0.000356
    23  H    0.006357  -0.000303  -0.000077  -0.000356   0.462194
 Mulliken charges:
               1
     1  N   -0.217830
     2  C    0.056982
     3  H    0.082962
     4  H    0.088360
     5  C   -0.059573
     6  H    0.097236
     7  H    0.094137
     8  C   -0.053308
     9  H    0.048167
    10  H    0.058292
    11  H    0.059951
    12  C    0.006929
    13  H    0.058687
    14  H    0.064173
    15  H    0.055732
    16  C    0.020035
    17  H    0.091373
    18  H    0.087404
    19  C   -0.056717
    20  H    0.057182
    21  H    0.064986
    22  H    0.057158
    23  H    0.237682
 Sum of Mulliken charges =   1.00000
 Mulliken charges with hydrogens summed into heavy atoms:
               1
     1  N    0.019852
     2  C    0.228305
     5  C    0.131799
     8  C    0.113102
    12  C    0.185522
    16  C    0.198812
    19  C    0.122609
 Electronic spatial extent (au):  <R**2>=            847.8928
 Charge=              1.0000 electrons
 Dipole moment (field-independent basis, Debye):
    X=             -0.5115    Y=             -0.3331    Z=             -2.6961  Tot=              2.7643
 Quadrupole moment (field-independent basis, Debye-Ang):
   XX=            -38.2743   YY=            -38.5270   ZZ=            -38.1046
   XY=              0.1462   XZ=              0.8317   YZ=             -0.0460
 Traceless Quadrupole moment (field-independent basis, Debye-Ang):
   XX=              0.0276   YY=             -0.2250   ZZ=              0.1974
   XY=              0.1462   XZ=              0.8317   YZ=             -0.0460
 Octapole moment (field-independent basis, Debye-Ang**2):
  XXX=             -7.1759  YYY=              1.2891  ZZZ=            -12.4394  XYY=              1.5641
  XXY=             -0.0973  XXZ=             -3.0570  XZZ=             -0.0023  YZZ=             -2.4434
  YYZ=             -2.6503  XYZ=             -0.7477
 Hexadecapole moment (field-independent basis, Debye-Ang**3):
 XXXX=           -528.8077 YYYY=           -319.8238 ZZZZ=           -184.2891 XXXY=              1.0422
 XXXZ=              4.1854 YYYX=              2.4544 YYYZ=             -4.0499 ZZZX=              1.1268
 ZZZY=              4.2213 XXYY=           -141.7685 XXZZ=           -120.4082 YYZZ=            -85.6543
 XXYZ=             -1.6728 YYXZ=              3.8379 ZZXY=             -1.2207
 N-N= 3.690067139582D+02 E-N=-1.401492516703D+03  KE= 2.896871863796D+02
   1 Symmetry operations used in ECPInt.
 ECPInt:  NShTT=    4095 NPrTT=   13669 LenC2=    4089 LenP2D=   11645.
 LDataN:  DoStor=T MaxTD1= 5 Len=  102
 D1PCM: PCM CHGder 1st derivatives, ID1Alg=3 FixD1E=F DoIter=F DoCFld=F I1PDM=0.
 Calling FoFJK, ICntrl=      2127 FMM=F ISym2X=0 I1Cent= 0 IOpClX= 0 NMat=1 NMatS=1 NMatT=0.
 ***** Axes restored to original set *****
 -------------------------------------------------------------------
 Center     Atomic                   Forces (Hartrees/Bohr)
 Number     Number              X              Y              Z
 -------------------------------------------------------------------
      1        7           0.001582867    0.011238522   -0.025002400
      2        6           0.032923622    0.008264364   -0.025645586
      3        1          -0.013092409    0.011631553    0.002352361
      4        1           0.008247034    0.001293890    0.017869844
      5        6          -0.012134681   -0.058698180    0.017931340
      6        1           0.005200563    0.001224967   -0.006256577
      7        1           0.014433812   -0.000484949    0.008960686
      8        6          -0.013608644    0.012481111    0.024186974
      9        1          -0.002939967    0.003264513   -0.017888695
     10        1           0.007275612    0.019002731   -0.000207736
     11        1           0.017087948   -0.002840883   -0.001988967
     12        6           0.014162568    0.027812384    0.002272315
     13        1          -0.015827279   -0.009175062   -0.003194789
     14        1           0.011013915   -0.012684189   -0.010660572
     15        1          -0.000461393   -0.009063988    0.019825131
     16        6          -0.008142672   -0.011976356   -0.036117095
     17        1          -0.009809537   -0.013121091    0.010986550
     18        1          -0.007108220    0.013954779    0.008449942
     19        6          -0.010967266    0.009134565    0.025621536
     20        1          -0.003314307   -0.009705639   -0.013523590
     21        1          -0.018748522    0.002169059   -0.006752149
     22        1           0.005196169    0.013495055   -0.013170414
     23        1          -0.000969214   -0.007217155    0.021951891
 -------------------------------------------------------------------
 Cartesian Forces:  Max     0.058698180 RMS     0.015417971

 GradGradGradGradGradGradGradGradGradGradGradGradGradGradGradGradGradGrad
 Berny optimization.
 FormGI is forming the generalized inverse of G from B-inverse, IUseBI=4.
 Internal  Forces:  Max     0.085388489 RMS     0.019073481
 Search for a local minimum.
 Step number   1 out of a maximum of  128
 All quantities printed in internal units (Hartrees-Bohrs-Radians)
 Mixed Optimization -- RFO/linear search
 Second derivative matrix not updated -- first step.
 ITU=  0
     Eigenvalues ---    0.00237   0.00237   0.00237   0.00766   0.00766
     Eigenvalues ---    0.00766   0.04042   0.04042   0.04042   0.04354
     Eigenvalues ---    0.04996   0.04996   0.05076   0.05076   0.05076
     Eigenvalues ---    0.05720   0.05720   0.05720   0.05720   0.05720
     Eigenvalues ---    0.05720   0.07805   0.07805   0.07805   0.11775
     Eigenvalues ---    0.11775   0.11775   0.16000   0.16000   0.16000
     Eigenvalues ---    0.16000   0.16000   0.16000   0.16000   0.16000
     Eigenvalues ---    0.16000   0.16238   0.16238   0.21950   0.21950
     Eigenvalues ---    0.21950   0.28519   0.28519   0.28519   0.35740
     Eigenvalues ---    0.35740   0.35740   0.37230   0.37230   0.37230
     Eigenvalues ---    0.37230   0.37230   0.37230   0.37230   0.37230
     Eigenvalues ---    0.37230   0.37230   0.37230   0.37230   0.37230
     Eigenvalues ---    0.37230   0.37230   0.47688
 RFO step:  Lambda=-1.31263413D-01 EMin= 2.36824135D-03
 Linear search not attempted -- first point.
 Maximum step size (   0.300) exceeded in Quadratic search.
    -- Step size scaled by   0.569
 Iteration  1 RMS(Cart)=  0.17794321 RMS(Int)=  0.00750016
 Iteration  2 RMS(Cart)=  0.01470165 RMS(Int)=  0.00078677
 Iteration  3 RMS(Cart)=  0.00017663 RMS(Int)=  0.00078384
 Iteration  4 RMS(Cart)=  0.00000011 RMS(Int)=  0.00078384
 Variable       Old X    -DE/DX   Delta X   Delta X   Delta X     New X
                                 (Linear)    (Quad)   (Total)
    R1        2.77790   0.06318   0.00000   0.07360   0.07360   2.85150
    R2        2.77790   0.03205   0.00000   0.03733   0.03733   2.81523
    R3        2.77790   0.05833   0.00000   0.06795   0.06795   2.84584
    R4        1.88973   0.02313   0.00000   0.02165   0.02165   1.91137
    R5        2.02201   0.01718   0.00000   0.01942   0.01942   2.04142
    R6        2.02201   0.01951   0.00000   0.02206   0.02206   2.04406
    R7        2.91018   0.00343   0.00000   0.00469   0.00469   2.91487
    R8        2.02201   0.00633   0.00000   0.00716   0.00716   2.02916
    R9        2.02201   0.01663   0.00000   0.01880   0.01880   2.04081
   R10        2.91018  -0.00001   0.00000  -0.00001  -0.00001   2.91017
   R11        2.02201   0.01605   0.00000   0.01815   0.01815   2.04015
   R12        2.02201   0.02030   0.00000   0.02294   0.02294   2.04495
   R13        2.02201   0.01405   0.00000   0.01589   0.01589   2.03789
   R14        2.02201   0.01588   0.00000   0.01796   0.01796   2.03996
   R15        2.02201   0.01988   0.00000   0.02247   0.02247   2.04448
   R16        2.02201   0.02161   0.00000   0.02443   0.02443   2.04644
   R17        2.02201   0.01947   0.00000   0.02201   0.02201   2.04401
   R18        2.02201   0.01701   0.00000   0.01923   0.01923   2.04124
   R19        2.91018   0.00478   0.00000   0.00654   0.00654   2.91672
   R20        2.02201   0.01004   0.00000   0.01135   0.01135   2.03335
   R21        2.02201   0.01999   0.00000   0.02260   0.02260   2.04460
   R22        2.02201   0.01810   0.00000   0.02046   0.02046   2.04246
    A1        1.91063   0.02803   0.00000   0.06890   0.06845   1.97909
    A2        1.91063  -0.02277   0.00000  -0.03000  -0.03476   1.87588
    A3        1.91063  -0.00417   0.00000  -0.02422  -0.02386   1.88677
    A4        1.91063   0.02796   0.00000   0.06929   0.06883   1.97946
    A5        1.91063  -0.02650   0.00000  -0.06453  -0.06303   1.84760
    A6        1.91063  -0.00255   0.00000  -0.01943  -0.01914   1.89150
    A7        1.91063  -0.02571   0.00000  -0.04073  -0.04103   1.86960
    A8        1.91063  -0.02633   0.00000  -0.04171  -0.04225   1.86838
    A9        1.91063   0.08539   0.00000   0.14299   0.14346   2.05409
   A10        1.91063   0.01264   0.00000   0.00623   0.00405   1.91468
   A11        1.91063  -0.02372   0.00000  -0.03524  -0.03502   1.87561
   A12        1.91063  -0.02227   0.00000  -0.03154  -0.03137   1.87927
   A13        1.91063  -0.00128   0.00000   0.00454   0.00415   1.91479
   A14        1.91063  -0.00601   0.00000  -0.01509  -0.01495   1.89568
   A15        1.91063   0.01340   0.00000   0.02258   0.02242   1.93306
   A16        1.91063   0.00164   0.00000  -0.00007   0.00001   1.91065
   A17        1.91063   0.00214   0.00000   0.01194   0.01166   1.92230
   A18        1.91063  -0.00989   0.00000  -0.02390  -0.02376   1.88687
   A19        1.91063   0.01034   0.00000   0.02150   0.02128   1.93191
   A20        1.91063  -0.00705   0.00000  -0.01638  -0.01626   1.89437
   A21        1.91063   0.01097   0.00000   0.02276   0.02254   1.93318
   A22        1.91063  -0.00472   0.00000  -0.01184  -0.01173   1.89890
   A23        1.91063  -0.00457   0.00000  -0.00375  -0.00426   1.90637
   A24        1.91063  -0.00497   0.00000  -0.01228  -0.01217   1.89847
   A25        1.91063   0.01397   0.00000   0.02826   0.02820   1.93883
   A26        1.91063  -0.00312   0.00000  -0.00675  -0.00675   1.90388
   A27        1.91063   0.00176   0.00000   0.00315   0.00308   1.91372
   A28        1.91063  -0.00474   0.00000  -0.00868  -0.00867   1.90196
   A29        1.91063  -0.00632   0.00000  -0.01102  -0.01116   1.89948
   A30        1.91063  -0.00156   0.00000  -0.00495  -0.00496   1.90567
   A31        1.91063  -0.02443   0.00000  -0.03536  -0.03732   1.87331
   A32        1.91063  -0.02523   0.00000  -0.04417  -0.04338   1.86726
   A33        1.91063   0.08024   0.00000   0.13455   0.13481   2.04544
   A34        1.91063   0.01145   0.00000   0.00457   0.00271   1.91334
   A35        1.91063  -0.01478   0.00000  -0.01225  -0.01287   1.89776
   A36        1.91063  -0.02725   0.00000  -0.04735  -0.04623   1.86440
   A37        1.91063   0.01777   0.00000   0.03658   0.03637   1.94700
   A38        1.91063  -0.00729   0.00000  -0.01688  -0.01676   1.89387
   A39        1.91063   0.00637   0.00000   0.01322   0.01293   1.92356
   A40        1.91063  -0.00706   0.00000  -0.01536  -0.01518   1.89546
   A41        1.91063  -0.00590   0.00000  -0.00626  -0.00684   1.90379
   A42        1.91063  -0.00389   0.00000  -0.01130  -0.01126   1.89937
    D1        2.42149   0.02747   0.00000   0.07863   0.07769   2.49918
    D2       -1.76730   0.01109   0.00000   0.03577   0.03600  -1.73131
    D3        0.32709   0.01998   0.00000   0.05917   0.05876   0.38585
    D4        0.32709  -0.00999   0.00000  -0.03005  -0.02997   0.29712
    D5        2.42149  -0.02638   0.00000  -0.07291  -0.07167   2.34982
    D6       -1.76730  -0.01749   0.00000  -0.04951  -0.04890  -1.81621
    D7       -1.76730   0.00963   0.00000   0.02695   0.02612  -1.74118
    D8        0.32709  -0.00676   0.00000  -0.01590  -0.01557   0.31152
    D9        2.42149   0.00213   0.00000   0.00749   0.00719   2.42868
   D10       -1.09273  -0.00310   0.00000  -0.02769  -0.02947  -1.12220
   D11        1.00167  -0.00555   0.00000  -0.03423  -0.03605   0.96562
   D12        3.09606  -0.01314   0.00000  -0.05892  -0.06080   3.03526
   D13        1.00167   0.00330   0.00000   0.02019   0.02209   1.02376
   D14        3.09606   0.00085   0.00000   0.01365   0.01552   3.11158
   D15       -1.09273  -0.00674   0.00000  -0.01104  -0.00924  -1.10196
   D16        3.09606   0.00107   0.00000  -0.00070  -0.00069   3.09537
   D17       -1.09273  -0.00138   0.00000  -0.00724  -0.00727  -1.09999
   D18        1.00167  -0.00897   0.00000  -0.03193  -0.03202   0.96965
   D19       -2.64969   0.02458   0.00000   0.06273   0.06158  -2.58811
   D20       -0.55529   0.00819   0.00000   0.01963   0.01964  -0.53565
   D21        1.53910   0.00850   0.00000   0.01699   0.01638   1.55548
   D22        1.53910  -0.01293   0.00000  -0.04571  -0.04586   1.49324
   D23       -2.64969  -0.02932   0.00000  -0.08881  -0.08780  -2.73749
   D24       -0.55529  -0.02900   0.00000  -0.09145  -0.09107  -0.64636
   D25       -0.55529   0.00397   0.00000   0.00279   0.00239  -0.55290
   D26        1.53910  -0.01242   0.00000  -0.04031  -0.03955   1.49955
   D27       -2.64969  -0.01211   0.00000  -0.04295  -0.04282  -2.69251
   D28        1.04720   0.00319   0.00000   0.00878   0.00886   1.05606
   D29        3.14159  -0.00058   0.00000  -0.00259  -0.00267   3.13892
   D30       -1.04720  -0.00426   0.00000  -0.01373  -0.01398  -1.06118
   D31       -1.04720  -0.00309   0.00000  -0.00732  -0.00695  -1.05415
   D32        1.04720  -0.00685   0.00000  -0.01869  -0.01849   1.02871
   D33        3.14159  -0.01054   0.00000  -0.02983  -0.02979   3.11180
   D34        3.14159   0.00959   0.00000   0.02595   0.02599  -3.11560
   D35       -1.04720   0.00583   0.00000   0.01458   0.01446  -1.03274
   D36        1.04720   0.00214   0.00000   0.00344   0.00315   1.05035
   D37        1.04720   0.00453   0.00000   0.01552   0.01567   1.06286
   D38        3.14159   0.00537   0.00000   0.01805   0.01816  -3.12343
   D39       -1.04720   0.00263   0.00000   0.00978   0.00986  -1.03734
   D40       -1.04720  -0.00341   0.00000  -0.01119  -0.01125  -1.05845
   D41        1.04720  -0.00257   0.00000  -0.00865  -0.00875   1.03844
   D42        3.14159  -0.00531   0.00000  -0.01692  -0.01706   3.12454
   D43       -3.14159  -0.00068   0.00000  -0.00378  -0.00375   3.13784
   D44       -1.04720   0.00016   0.00000  -0.00124  -0.00126  -1.04845
   D45        1.04720  -0.00258   0.00000  -0.00951  -0.00956   1.03764
   D46        1.04720   0.00674   0.00000   0.02319   0.02408   1.07127
   D47        3.14159   0.00451   0.00000   0.01645   0.01709  -3.12450
   D48       -1.04720  -0.00082   0.00000   0.00036   0.00088  -1.04631
   D49       -1.04720  -0.00343   0.00000  -0.00840  -0.00850  -1.05570
   D50        1.04720  -0.00566   0.00000  -0.01514  -0.01549   1.03171
   D51        3.14159  -0.01099   0.00000  -0.03123  -0.03170   3.10990
   D52        3.14159   0.00829   0.00000   0.02250   0.02232  -3.11927
   D53       -1.04720   0.00606   0.00000   0.01575   0.01534  -1.03186
   D54        1.04720   0.00073   0.00000  -0.00033  -0.00087   1.04633
         Item               Value     Threshold  Converged?
 Maximum Force            0.085388     0.000450     NO 
 RMS     Force            0.019073     0.000300     NO 
 Maximum Displacement     0.639127     0.001800     NO 
 RMS     Displacement     0.187040     0.001200     NO 
 Predicted change in Energy=-6.322977D-02
 GradGradGradGradGradGradGradGradGradGradGradGradGradGradGradGradGradGrad

                          Input orientation:                          
 ---------------------------------------------------------------------
 Center     Atomic      Atomic             Coordinates (Angstroms)
 Number     Number       Type             X           Y           Z
 ---------------------------------------------------------------------
      1          7           0       -0.774882    0.548996    0.461207
      2          6           0       -0.154995    1.924460    0.433529
      3          1           0       -0.961739    2.634735    0.325504
      4          1           0        0.334626    2.070919    1.386857
      5          6           0        0.043896   -0.482903   -0.234611
      6          1           0        0.108261   -0.249262   -1.280693
      7          1           0        1.034501   -0.484588    0.195495
      8          6           0        0.876545    2.223643   -0.673568
      9          1           0        0.429450    2.116942   -1.650433
     10          1           0        1.220547    3.243003   -0.556960
     11          1           0        1.723471    1.560541   -0.596282
     12          6           0       -0.564514   -1.884277   -0.040767
     13          1           0       -1.561292   -1.935221   -0.452061
     14          1           0        0.059799   -2.613142   -0.540244
     15          1           0       -0.609813   -2.118641    1.015528
     16          6           0       -2.172965    0.671848   -0.084848
     17          1           0       -2.780869   -0.069406    0.416103
     18          1           0       -2.524906    1.661147    0.168538
     19          6           0       -2.351418    0.511157   -1.609512
     20          1           0       -2.042135   -0.463947   -1.943131
     21          1           0       -3.398571    0.641610   -1.848439
     22          1           0       -1.777832    1.262331   -2.133839
     23          1           0       -0.834402    0.250425    1.425755
 ---------------------------------------------------------------------
                    Distance matrix (angstroms):
                    1          2          3          4          5
     1  N    0.000000
     2  C    1.508949   0.000000
     3  H    2.098485   1.080275   0.000000
     4  H    2.098592   1.081671   1.767744   0.000000
     5  C    1.489756   2.506265   3.323356   3.039027   0.000000
     6  H    2.109827   2.780814   3.470188   3.542640   1.073788
     7  H    2.100658   2.697234   3.705678   2.905131   1.079950
     8  C    2.611392   1.542481   2.132235   2.135966   2.865551
     9  H    2.892731   2.172906   2.471405   3.039118   2.985364
    10  H    3.503723   2.147496   2.431276   2.436608   3.920560
    11  H    2.895388   2.172920   3.035446   2.474311   2.669727
    12  C    2.493401   3.859941   4.551199   4.300016   1.539996
    13  H    2.761128   4.202271   4.674245   4.798466   2.175578
    14  H    3.420338   4.645880   5.416020   5.072443   2.152111
    15  H    2.729616   4.110018   4.816074   4.310715   2.160051
    16  C    1.505956   2.431039   2.342729   3.226658   2.504067
    17  H    2.099628   3.297123   3.260341   3.902520   2.928089
    18  H    2.094068   2.399173   1.848243   3.135145   3.370197
    19  C    2.602839   3.315979   3.191407   4.315775   2.935309
    20  H    2.900487   3.861904   3.989460   4.812833   2.696466
    21  H    3.496682   4.168197   3.825798   5.142647   3.964789
    22  H    2.872110   3.108599   2.932212   4.184685   3.157784
    23  H    1.011455   2.061189   2.629011   2.163871   2.016431
                    6          7          8          9         10
     6  H    0.000000
     7  H    1.758531   0.000000
     8  C    2.659722   2.848638   0.000000
     9  H    2.416359   3.246766   1.079603   0.000000
    10  H    3.735891   3.807326   1.082141   1.757706   0.000000
    11  H    2.520458   2.298726   1.078407   1.759348   1.756461
    12  C    2.159472   2.138177   4.399102   4.425917   5.453613
    13  H    2.513264   3.043322   4.825792   4.671100   5.879084
    14  H    2.477609   2.453996   4.907071   4.872664   5.970096
    15  H    3.046775   2.458933   4.890576   5.111514   5.879639
    16  C    2.735412   3.421078   3.471911   3.363318   4.283649
    17  H    3.355374   3.844228   4.452205   4.399640   5.284906
    18  H    3.561390   4.156235   3.549002   3.499232   4.130016
    19  C    2.595453   3.964090   3.772048   3.211456   4.618418
    20  H    2.260336   3.746978   4.165769   3.585442   5.129137
    21  H    3.662493   5.009802   4.707416   4.107256   5.456319
    22  H    2.563224   4.048054   3.178400   2.415809   3.924268
    23  H    2.909152   2.355119   3.350834   3.813678   4.136363
                   11         12         13         14         15
    11  H    0.000000
    12  C    4.172559   0.000000
    13  H    4.799044   1.079502   0.000000
    14  H    4.493393   1.081891   1.759344   0.000000
    15  H    4.645269   1.082930   1.758628   1.764465   0.000000
    16  C    4.029088   3.020403   2.702924   3.997972   3.382470
    17  H    4.895991   2.900813   2.392141   3.931232   3.045021
    18  H    4.317844   4.056720   3.774594   5.045059   4.321085
    19  C    4.328113   3.375217   2.819354   4.088832   4.103640
    20  H    4.482449   2.796371   2.149220   3.317418   3.680112
    21  H    5.352350   4.204719   3.459122   4.925963   4.857825
    22  H    3.835640   3.969160   3.619338   4.575558   4.765895
    23  H    3.513937   2.603936   2.971802   3.586749   2.414788
                   16         17         18         19         20
    16  C    0.000000
    17  H    1.081646   0.000000
    18  H    1.080176   1.766811   0.000000
    19  C    1.543459   2.150488   2.124627   0.000000
    20  H    2.181826   2.503473   3.034509   1.076004   0.000000
    21  H    2.147854   2.452601   2.423003   1.081958   1.752467
    22  H    2.168677   3.046607   2.453184   1.080826   1.756777
    23  H    2.061861   2.215947   2.535456   3.403258   3.649431
                   21         22         23
    21  H    0.000000
    22  H    1.758848   0.000000
    23  H    4.177121   3.818995   0.000000
 Stoichiometry    C6H16N(1+)
 Framework group  C1[X(C6H16N)]
 Deg. of freedom    63
 Full point group                 C1      NOp   1
 Largest Abelian subgroup         C1      NOp   1
 Largest concise Abelian subgroup C1      NOp   1
                         Standard orientation:                         
 ---------------------------------------------------------------------
 Center     Atomic      Atomic             Coordinates (Angstroms)
 Number     Number       Type             X           Y           Z
 ---------------------------------------------------------------------
      1          7           0       -0.062956   -0.184746   -0.711343
      2          6           0       -1.567116   -0.087616   -0.640673
      3          1           0       -1.831477    0.932316   -0.879098
      4          1           0       -1.963722   -0.753130   -1.395529
      5          6           0        0.520924   -1.084211    0.322786
      6          1           0        0.333425   -0.681676    1.300451
      7          1           0        0.055457   -2.054992    0.237828
      8          6           0       -2.246076   -0.440857    0.698537
      9          1           0       -1.902957    0.214663    1.484735
     10          1           0       -3.315324   -0.319149    0.584848
     11          1           0       -2.040413   -1.463143    0.973482
     12          6           0        2.035100   -1.258429    0.102546
     13          1           0        2.549367   -0.311972    0.173766
     14          1           0        2.427168   -1.929330    0.855317
     15          1           0        2.214163   -1.680606   -0.878494
     16          6           0        0.483686    1.217639   -0.662328
     17          1           0        1.394598    1.228997   -1.245482
     18          1           0       -0.251587    1.859294   -1.125397
     19          6           0        0.779912    1.810956    0.731405
     20          1           0        1.525578    1.238164    1.254545
     21          1           0        1.146987    2.820729    0.603932
     22          1           0       -0.123263    1.840423    1.324356
     23          1           0        0.184116   -0.592262   -1.603490
 ---------------------------------------------------------------------
 Rotational constants (GHZ):           2.8667661           2.0036920           1.5348134
 Standard basis: def2SVP (5D, 7F)
 There are   185 symmetry adapted cartesian basis functions of A   symmetry.
 There are   178 symmetry adapted basis functions of A   symmetry.
   178 basis functions,   287 primitive gaussians,   185 cartesian basis functions
    29 alpha electrons       29 beta electrons
       nuclear repulsion energy       355.2671306554 Hartrees.
 NAtoms=   23 NActive=   23 NUniq=   23 SFac= 1.00D+00 NAtFMM=   60 NAOKFM=F Big=F
 Integral buffers will be    131072 words long.
 Raffenetti 2 integral format.
 Two-electron integral symmetry is turned on.
 Nuclear repulsion after empirical dispersion term =      355.2498506541 Hartrees.
 ------------------------------------------------------------------------------
 Polarizable Continuum Model (PCM)
 =================================
 Model                : PCM.
 Atomic radii         : SMD-Coulomb.
 Polarization charges : Total charges.
 Charge compensation  : None.
 Solution method      : On-the-fly selection.
 Cavity type          : VdW (van der Waals Surface) (Alpha=1.000).
 Cavity algorithm     : GePol (No added spheres)
                        Default sphere list used, NSphG=   23.
                        Lebedev-Laikov grids with approx.  5.0 points / Ang**2.
                        Smoothing algorithm: York/Karplus (Gamma=1.0000).
                        Polarization charges: spherical gaussians, with
                                              point-specific exponents (IZeta= 3).
                        Self-potential: point-specific (ISelfS= 7).
                        Self-field    : sphere-specific E.n sum rule (ISelfD= 2).
 1st derivatives      : Analytical E(r).r(x)/FMM algorithm (CHGder, D1EAlg=3).
                        Cavity 1st derivative terms included.
 Solvent              : Acetonitrile, Eps=  35.688000 Eps(inf)=   1.806874
 ------------------------------------------------------------------------------
 ------------------------------------------------------------------------------
 Atomic radii for non-electrostatic terms: SMD-CDS.
 ------------------------------------------------------------------------------
 Nuclear repulsion after PCM non-electrostatic terms =      355.2481764235 Hartrees.
 One-electron integrals computed using PRISM.
   1 Symmetry operations used in ECPInt.
 ECPInt:  NShTT=    4095 NPrTT=   13669 LenC2=    4088 LenP2D=   11485.
 LDataN:  DoStor=T MaxTD1= 4 Len=   56
 NBasis=   178 RedAO= T EigKep=  2.24D-03  NBF=   178
 NBsUse=   178 1.00D-06 EigRej= -1.00D+00 NBFU=   178
 Initial guess from the checkpoint file:  "/home/heidi/Gau-290849.chk"
 B after Tr=     0.000000   -0.000000   -0.000000
         Rot=    0.998891    0.043473    0.016714   -0.006823 Ang=   5.40 deg.
 ExpMin= 1.22D-01 ExpMax= 1.71D+03 ExpMxC= 2.58D+02 IAcc=3 IRadAn=         5 AccDes= 0.00D+00
 Harris functional with IExCor= 4639 and IRadAn=       5 diagonalized for initial guess.
 HarFok:  IExCor= 4639 AccDes= 0.00D+00 IRadAn=         5 IDoV= 1 UseB2=F ITyADJ=14
 ICtDFT=  3500011 ScaDFX=  1.000000  1.000000  1.000000  1.000000
 FoFCou: FMM=F IPFlag=           0 FMFlag=      100000 FMFlg1=           0
         NFxFlg=           0 DoJE=T BraDBF=F KetDBF=T FulRan=T
         wScrn=  0.000000 ICntrl=       500 IOpCl=  0 I1Cent=   200000004 NGrid=           0
         NMat0=    1 NMatS0=      1 NMatT0=    0 NMatD0=    1 NMtDS0=    0 NMtDT0=    0
 Petite list used in FoFCou.
 Requested convergence on RMS density matrix=1.00D-08 within 128 cycles.
 Requested convergence on MAX density matrix=1.00D-06.
 Requested convergence on             energy=1.00D-06.
 No special actions if energy rises.
 Inv3:  Mode=1 IEnd=     6633507.
 Iteration    1 A*A^-1 deviation from unit magnitude is 5.33D-15 for    357.
 Iteration    1 A*A^-1 deviation from orthogonality  is 2.24D-15 for   1472    271.
 Iteration    1 A^-1*A deviation from unit magnitude is 4.55D-15 for   1473.
 Iteration    1 A^-1*A deviation from orthogonality  is 4.99D-15 for   1305   1261.
 Error on total polarization charges =  0.03507
 SCF Done:  E(RwB97XD) =  -292.590705566     A.U. after   11 cycles
            NFock= 11  Conv=0.27D-08     -V/T= 2.0121
 SMD-CDS (non-electrostatic) energy       (kcal/mol) =      -1.05
 (included in total energy above)
   1 Symmetry operations used in ECPInt.
 ECPInt:  NShTT=    4095 NPrTT=   13669 LenC2=    4088 LenP2D=   11485.
 LDataN:  DoStor=T MaxTD1= 5 Len=  102
 D1PCM: PCM CHGder 1st derivatives, ID1Alg=3 FixD1E=F DoIter=F DoCFld=F I1PDM=0.
 Calling FoFJK, ICntrl=      2127 FMM=F ISym2X=0 I1Cent= 0 IOpClX= 0 NMat=1 NMatS=1 NMatT=0.
 ***** Axes restored to original set *****
 -------------------------------------------------------------------
 Center     Atomic                   Forces (Hartrees/Bohr)
 Number     Number              X              Y              Z
 -------------------------------------------------------------------
      1        7           0.001821152    0.017331455   -0.036345751
      2        6           0.025560460    0.006397107   -0.009806915
      3        1          -0.006909758    0.005935789    0.004822254
      4        1           0.002077760    0.000840850    0.011429027
      5        6          -0.015045932   -0.029141345    0.013106253
      6        1           0.001487125    0.007160646   -0.013267306
      7        1           0.010643640    0.005361220    0.005256191
      8        6          -0.019647837   -0.014613993    0.014798210
      9        1          -0.004074460   -0.000270641   -0.013302687
     10        1           0.001988815    0.010565494    0.002914307
     11        1           0.012591243   -0.006324288   -0.000466298
     12        6           0.008084140    0.023223015   -0.000199562
     13        1          -0.011573542   -0.003551315   -0.005126872
     14        1           0.006670330   -0.007367710   -0.004883650
     15        1          -0.000556953   -0.004687137    0.011379935
     16        6          -0.009733837   -0.012919382   -0.019186061
     17        1          -0.005732273   -0.006755669    0.007222360
     18        1          -0.004881035    0.005774012    0.009416844
     19        6           0.013553726    0.005295166    0.025564858
     20        1           0.002572807   -0.013484030   -0.007111205
     21        1          -0.010957830    0.002088007   -0.000249804
     22        1           0.006001544    0.008790435   -0.008320103
     23        1          -0.003939283    0.000352314    0.012355977
 -------------------------------------------------------------------
 Cartesian Forces:  Max     0.036345751 RMS     0.011532233

 GradGradGradGradGradGradGradGradGradGradGradGradGradGradGradGradGradGrad
 Berny optimization.
 Using GEDIIS/GDIIS optimizer.
 FormGI is forming the generalized inverse of G from B-inverse, IUseBI=4.
 Internal  Forces:  Max     0.015153358 RMS     0.005790307
 Search for a local minimum.
 Step number   2 out of a maximum of  128
 All quantities printed in internal units (Hartrees-Bohrs-Radians)
 Mixed Optimization -- RFO/linear search
 Update second derivatives using D2CorX and points    1    2
 DE= -3.35D-02 DEPred=-6.32D-02 R= 5.30D-01
 TightC=F SS=  1.41D+00  RLast= 3.87D-01 DXNew= 5.0454D-01 1.1620D+00
 Trust test= 5.30D-01 RLast= 3.87D-01 DXMaxT set to 5.05D-01
 ITU=  1  0
 Use linear search instead of GDIIS.
     Eigenvalues ---    0.00237   0.00237   0.00237   0.00766   0.00766
     Eigenvalues ---    0.00784   0.03322   0.03371   0.03888   0.04351
     Eigenvalues ---    0.04918   0.04928   0.05062   0.05149   0.05391
     Eigenvalues ---    0.05463   0.05537   0.05614   0.05732   0.05754
     Eigenvalues ---    0.05785   0.07995   0.09010   0.09092   0.11943
     Eigenvalues ---    0.12684   0.12723   0.15900   0.16000   0.16000
     Eigenvalues ---    0.16000   0.16000   0.16000   0.16000   0.16000
     Eigenvalues ---    0.16027   0.16567   0.18363   0.21942   0.22146
     Eigenvalues ---    0.28058   0.28516   0.28519   0.31793   0.34889
     Eigenvalues ---    0.35740   0.35743   0.37144   0.37230   0.37230
     Eigenvalues ---    0.37230   0.37230   0.37230   0.37230   0.37230
     Eigenvalues ---    0.37230   0.37230   0.37230   0.37230   0.37230
     Eigenvalues ---    0.37230   0.47478   0.63503
 RFO step:  Lambda=-2.01133955D-02 EMin= 2.36819418D-03
 Quartic linear search produced a step of  0.08110.
 Iteration  1 RMS(Cart)=  0.07211666 RMS(Int)=  0.00259983
 Iteration  2 RMS(Cart)=  0.00366060 RMS(Int)=  0.00069760
 Iteration  3 RMS(Cart)=  0.00000917 RMS(Int)=  0.00069759
 Iteration  4 RMS(Cart)=  0.00000000 RMS(Int)=  0.00069759
 Variable       Old X    -DE/DX   Delta X   Delta X   Delta X     New X
                                 (Linear)    (Quad)   (Total)
    R1        2.85150   0.00689   0.00597   0.01512   0.02109   2.87259
    R2        2.81523   0.00321   0.00303   0.00687   0.00989   2.82513
    R3        2.84584   0.00494   0.00551   0.00997   0.01548   2.86132
    R4        1.91137   0.01191   0.00176   0.02419   0.02595   1.93732
    R5        2.04142   0.00858   0.00157   0.02212   0.02370   2.06512
    R6        2.04406   0.01113   0.00179   0.02888   0.03067   2.07473
    R7        2.91487  -0.01098   0.00038  -0.03853  -0.03815   2.87672
    R8        2.02916   0.01459   0.00058   0.03914   0.03972   2.06889
    R9        2.04081   0.01185   0.00153   0.03103   0.03255   2.07336
   R10        2.91017  -0.00784  -0.00000  -0.02734  -0.02734   2.88283
   R11        2.04015   0.01377   0.00147   0.03629   0.03776   2.07792
   R12        2.04495   0.01090   0.00186   0.02821   0.03007   2.07502
   R13        2.03789   0.01373   0.00129   0.03631   0.03760   2.07550
   R14        2.03996   0.01280   0.00146   0.03366   0.03512   2.07508
   R15        2.04448   0.01108   0.00182   0.02873   0.03055   2.07503
   R16        2.04644   0.01213   0.00198   0.03147   0.03345   2.07989
   R17        2.04401   0.01121   0.00178   0.02911   0.03089   2.07491
   R18        2.04124   0.00909   0.00156   0.02352   0.02508   2.06631
   R19        2.91672  -0.01142   0.00053  -0.04018  -0.03965   2.87707
   R20        2.03335   0.01515   0.00092   0.04044   0.04136   2.07471
   R21        2.04460   0.01092   0.00183   0.02830   0.03014   2.07474
   R22        2.04246   0.01331   0.00166   0.03490   0.03655   2.07902
    A1        1.97909  -0.00603   0.00555  -0.01142  -0.01024   1.96885
    A2        1.87588   0.01374  -0.00282   0.10656   0.10292   1.97879
    A3        1.88677  -0.00337  -0.00194  -0.04141  -0.04231   1.84446
    A4        1.97946  -0.00234   0.00558   0.01014   0.01266   1.99212
    A5        1.84760   0.00214  -0.00511  -0.02529  -0.03109   1.81651
    A6        1.89150  -0.00478  -0.00155  -0.04793  -0.04792   1.84358
    A7        1.86960   0.00238  -0.00333   0.00757   0.00457   1.87417
    A8        1.86838   0.00096  -0.00343  -0.00400  -0.00707   1.86131
    A9        2.05409  -0.01039   0.01163  -0.05085  -0.03891   2.01518
   A10        1.91468  -0.00324   0.00033  -0.02359  -0.02399   1.89069
   A11        1.87561   0.00449  -0.00284   0.03094   0.02792   1.90353
   A12        1.87927   0.00575  -0.00254   0.03866   0.03580   1.91506
   A13        1.91479  -0.00318   0.00034  -0.01985  -0.02048   1.89430
   A14        1.89568  -0.00462  -0.00121  -0.04399  -0.04552   1.85017
   A15        1.93306   0.00468   0.00182   0.02234   0.02418   1.95724
   A16        1.91065   0.00028   0.00000  -0.00770  -0.00897   1.90168
   A17        1.92230   0.00170   0.00095   0.03185   0.03278   1.95508
   A18        1.88687   0.00110  -0.00193   0.01650   0.01494   1.90181
   A19        1.93191   0.00300   0.00173   0.01970   0.02102   1.95293
   A20        1.89437  -0.00492  -0.00132  -0.03461  -0.03568   1.85869
   A21        1.93318   0.00444   0.00183   0.02865   0.03015   1.96332
   A22        1.89890   0.00003  -0.00095  -0.00600  -0.00679   1.89211
   A23        1.90637  -0.00218  -0.00035  -0.00083  -0.00200   1.90437
   A24        1.89847  -0.00050  -0.00099  -0.00811  -0.00878   1.88969
   A25        1.93883   0.00384   0.00229   0.02410   0.02619   1.96503
   A26        1.90388  -0.00173  -0.00055  -0.01417  -0.01461   1.88927
   A27        1.91372   0.00238   0.00025   0.01555   0.01557   1.92928
   A28        1.90196  -0.00149  -0.00070  -0.01131  -0.01188   1.89008
   A29        1.89948  -0.00195  -0.00090  -0.00273  -0.00411   1.89536
   A30        1.90567  -0.00116  -0.00040  -0.01212  -0.01246   1.89322
   A31        1.87331   0.00168  -0.00303   0.00450   0.00177   1.87508
   A32        1.86726   0.00104  -0.00352  -0.00639  -0.00955   1.85770
   A33        2.04544  -0.01012   0.01093  -0.04851  -0.03727   2.00817
   A34        1.91334  -0.00349   0.00022  -0.02737  -0.02798   1.88536
   A35        1.89776   0.00575  -0.00104   0.04292   0.04167   1.93943
   A36        1.86440   0.00503  -0.00375   0.03280   0.02867   1.89307
   A37        1.94700   0.00426   0.00295   0.02690   0.02953   1.97653
   A38        1.89387  -0.00494  -0.00136  -0.03458  -0.03569   1.85819
   A39        1.92356   0.00312   0.00105   0.02068   0.02132   1.94488
   A40        1.89546  -0.00029  -0.00123  -0.00625  -0.00717   1.88828
   A41        1.90379  -0.00222  -0.00055  -0.00129  -0.00266   1.90113
   A42        1.89937  -0.00006  -0.00091  -0.00670  -0.00746   1.89192
    D1        2.49918   0.00404   0.00630   0.10116   0.10771   2.60689
    D2       -1.73131   0.00196   0.00292   0.07554   0.07864  -1.65267
    D3        0.38585   0.00326   0.00477   0.08877   0.09385   0.47970
    D4        0.29712   0.00081  -0.00243   0.01443   0.01137   0.30849
    D5        2.34982  -0.00126  -0.00581  -0.01119  -0.01770   2.33211
    D6       -1.81621   0.00003  -0.00397   0.00204  -0.00249  -1.81870
    D7       -1.74118   0.00095   0.00212   0.03611   0.03861  -1.70257
    D8        0.31152  -0.00113  -0.00126   0.01049   0.00954   0.32105
    D9        2.42868   0.00016   0.00058   0.02372   0.02475   2.45342
   D10       -1.12220  -0.00419  -0.00239  -0.06903  -0.07122  -1.19342
   D11        0.96562  -0.00852  -0.00292  -0.11668  -0.11850   0.84712
   D12        3.03526  -0.00727  -0.00493  -0.11040  -0.11468   2.92058
   D13        1.02376   0.00769   0.00179   0.07377   0.07459   1.09835
   D14        3.11158   0.00336   0.00126   0.02612   0.02731   3.13889
   D15       -1.10196   0.00462  -0.00075   0.03240   0.03113  -1.07083
   D16        3.09537   0.00190  -0.00006   0.00429   0.00365   3.09902
   D17       -1.09999  -0.00243  -0.00059  -0.04336  -0.04363  -1.14362
   D18        0.96965  -0.00117  -0.00260  -0.03708  -0.03981   0.92984
   D19       -2.58811  -0.00055   0.00499  -0.03361  -0.02726  -2.61537
   D20       -0.53565  -0.00322   0.00159  -0.06646  -0.06356  -0.59921
   D21        1.55548  -0.00245   0.00133  -0.06018  -0.05742   1.49806
   D22        1.49324  -0.00159  -0.00372  -0.10762  -0.11235   1.38089
   D23       -2.73749  -0.00427  -0.00712  -0.14046  -0.14865  -2.88614
   D24       -0.64636  -0.00350  -0.00739  -0.13418  -0.14250  -0.78886
   D25       -0.55290   0.00029   0.00019  -0.05071  -0.05088  -0.60378
   D26        1.49955  -0.00239  -0.00321  -0.08355  -0.08718   1.41237
   D27       -2.69251  -0.00161  -0.00347  -0.07727  -0.08103  -2.77354
   D28        1.05606   0.00128   0.00072   0.01044   0.01147   1.06753
   D29        3.13892   0.00005  -0.00022  -0.00666  -0.00679   3.13213
   D30       -1.06118  -0.00097  -0.00113  -0.02105  -0.02243  -1.08360
   D31       -1.05415   0.00162  -0.00056   0.01033   0.01031  -1.04384
   D32        1.02871   0.00040  -0.00150  -0.00678  -0.00795   1.02076
   D33        3.11180  -0.00063  -0.00242  -0.02116  -0.02359   3.08821
   D34       -3.11560   0.00003   0.00211   0.00129   0.00332  -3.11228
[...]
 53,-0.00031007,-0.00051917,-0.00005565,-0.00005892,-0.00007322,-0.0000
 2144,0.02079962,-0.01729088,-0.00772333,0.00020167,0.00062390,0.000360
 40,0.00024214,0.00096270,-0.00057989,0.00004272,-0.00001720,-0.0001143
 9,-0.00000177,0.00001527,0.00002592,-0.00006010,-0.00001050,0.00006831
 ,-0.00002848,0.00005540,0.00003605,0.13310623,-0.18092795,-0.04418409,
 -0.00483900,0.00412434,0.00181014,-0.14211211,0.19546535,0.00018404,0.
 00108884,0.00041246,-0.00010640,0.00006951,0.00028957,0.00005925,0.000
 05008,0.00001814,0.00001252,0.00004494,-0.00000414,-0.00439599,0.00351
 034,-0.00056382,-0.00025191,-0.00033178,0.00007976,0.00012466,-0.00013
 114,0.00033050,-0.00003445,-0.00006323,0.00000519,-0.00000197,0.000001
 16,-0.00000437,0.00000358,-0.00000637,0.00000403,0.00001663,-0.0000140
 1,-0.00000931,0.04485992,-0.04520125,-0.05983217,-0.01166189,0.0138707
 1,0.00460360,-0.04793342,0.04771596,0.05848023,0.00079234,0.00053774,-
 0.00096115,0.00003692,0.00022556,-0.00002355,-0.00000687,-0.00002594,-
 0.00001554,-0.00002533,-0.00001794,-0.00001047,-0.00428999,0.00084683,
 0.01344481,0.00003705,-0.00251506,-0.00018686,0.00016102,0.00044221,0.
 00017961,-0.00009122,-0.00001551,-0.00001195,-0.00001481,0.00002272,-0
 .00000443,0.00002331,-0.00003680,-0.00000746,0.00005908,-0.00004244,0.
 00001139,-0.06514755,-0.00920428,0.06527933,0.00845462,0.00326103,-0.0
 2367882,-0.00421016,-0.00450317,0.01916359,0.06393345,-0.00014948,0.00
 243379,0.00147805,-0.00036966,0.00024180,-0.00001833,0.00005983,0.0000
 7564,-0.00001109,0.00000342,-0.00002266,-0.00000799,-0.00723726,-0.004
 60773,0.03142496,-0.00235983,-0.00513745,0.00017091,0.00045459,0.00087
 734,-0.00052551,-0.00015264,-0.00010397,-0.00003339,-0.00000345,0.0000
 3952,-0.00002561,0.00005222,-0.00007603,-0.00002271,0.00012624,-0.0000
 5899,-0.00003685,-0.00796953,-0.05055081,0.02665974,0.00184381,-0.0006
 2001,-0.00424032,0.00374673,0.00349546,-0.02111642,0.01157958,0.054543
 66,-0.00017602,-0.00039888,0.00138618,-0.00012186,-0.00002570,0.000096
 12,-0.00000348,0.00003434,0.00000847,0.00000679,0.00000699,-0.00000725
 ,0.00044860,-0.00048599,-0.00281293,0.00062053,0.00059254,0.00117058,0
 .00001282,0.00035163,0.00055711,0.00001382,-0.00010831,0.00001101,0.00
 000679,-0.00000545,-0.00000252,-0.00002345,0.00000378,0.00001785,-0.00
 002671,0.00001524,-0.00000572,0.06636063,0.02864208,-0.30399154,0.0062
 4396,0.00177716,-0.01287249,-0.00025942,0.00146817,-0.00405582,-0.0729
 2937,-0.03292419,0.32090211,-0.15203003,0.00050162,-0.02953734,-0.0199
 3285,-0.01100815,-0.00604642,0.00080238,0.00311891,0.00001630,0.000232
 79,0.00075638,0.00084030,-0.02296972,0.01168426,-0.00274113,0.00068770
 ,-0.00125683,-0.00101739,0.00109576,0.00062672,0.00054342,-0.00037195,
 0.00146285,0.00064355,0.00010844,-0.00018146,0.00015924,0.00058227,0.0
 0018285,-0.00058464,0.00002981,-0.00015435,-0.00014675,0.00176465,0.00
 032002,0.00049215,-0.00051590,-0.00014132,-0.00053206,-0.00077946,-0.0
 0112570,-0.00009207,-0.00000967,-0.00003279,-0.00004673,0.47580608,0.0
 0094421,-0.09920989,0.00061745,-0.02477040,0.00243753,-0.01531775,-0.0
 0236748,0.00134493,0.00001954,-0.00317469,-0.00472160,0.00013966,0.023
 62651,0.00117776,0.01231417,-0.00052338,0.00070726,-0.00004869,0.00266
 066,-0.00376771,-0.00226376,-0.00023369,-0.00021317,-0.00047083,0.0002
 2625,0.00001881,0.00041974,0.00002714,-0.00009533,0.00033428,-0.000001
 44,0.00000448,0.00010608,0.00096379,-0.00023671,-0.00028750,0.00060464
 ,-0.00062477,0.00006566,-0.00017076,0.00019378,-0.00000932,-0.00023426
 ,0.00002883,-0.00000079,0.00454939,0.66143447,-0.01401127,0.00283756,-
 0.10914918,0.00094935,-0.00742060,0.00229126,-0.00100719,0.00019879,0.
 00035686,0.00067219,0.00078210,0.00103131,0.00986962,0.00564467,0.0101
 1035,0.00117898,-0.00018177,-0.00028920,0.00279117,-0.00299805,-0.0012
 0229,0.00089201,0.00075249,0.00090988,0.00024845,0.00009448,-0.0003033
 1,0.00009361,0.00011730,-0.00055671,-0.00005443,-0.00011763,-0.0001514
 9,0.00053890,-0.00030537,-0.00039345,0.00020979,-0.00057231,0.00048725
 ,0.00003264,-0.00038169,0.00013555,-0.00023903,0.00004309,-0.00000693,
 -0.05957844,0.01378138,0.55631353,-0.02359276,-0.03080893,0.00488344,-
 0.00314632,0.00368398,-0.00264572,0.00012295,0.00001531,0.00004119,-0.
 00077198,-0.00129845,0.00001177,0.00049367,-0.00175691,0.00019989,-0.0
 0006657,0.00014413,-0.00005921,0.00012403,0.00011080,-0.00013209,-0.00
 001896,-0.00043845,-0.00024831,-0.00004830,0.00005749,0.00007025,-0.00
 011851,-0.00005548,0.00023501,-0.00000650,0.00004132,0.00004938,-0.001
 32139,0.00108070,0.00016613,-0.00016877,0.00125460,0.00038523,0.000275
 60,0.00003498,0.00002977,-0.00007384,0.00009174,-0.00006281,-0.1000567
 0,-0.09606892,0.03311298,0.11634033,0.00355929,0.00367355,-0.00102133,
 0.00062244,0.00021667,-0.00023905,-0.00013590,0.00033161,0.00012802,-0
 .00016208,0.00011166,0.00015360,0.00005856,-0.00013459,-0.00032415,0.0
 0004292,-0.00003071,-0.00000259,-0.00011742,0.00003356,0.00008253,-0.0
 0002155,0.00011506,-0.00002512,0.00000673,-0.00000478,-0.00003906,-0.0
 0000401,0.00000681,-0.00002616,-0.00003767,-0.00001513,0.00002444,0.00
 211379,-0.00217457,-0.00025508,0.00134613,-0.00151093,-0.00034913,0.00
 032891,0.00002636,0.00013262,0.00000097,-0.00014152,0.00009637,-0.1073
 8402,-0.26059493,0.06691777,0.10958094,0.27388762,-0.00914042,-0.01317
 087,0.00142438,-0.00240020,0.00068883,-0.00028016,-0.00005631,0.000305
 74,0.00001568,-0.00049369,-0.00037692,-0.00001575,0.00072291,-0.000090
 05,0.00002807,-0.00005139,0.00002619,0.00004170,-0.00003804,-0.0000490
 4,-0.00004797,-0.00024941,-0.00030286,-0.00033674,-0.00006655,-0.00002
 375,0.00009816,-0.00005598,-0.00003413,0.00016219,-0.00002030,0.000005
 15,0.00005982,0.00019111,0.00047758,0.00053374,0.00007568,-0.00063232,
 -0.00030957,-0.00018137,0.00001988,-0.00013634,-0.00004851,0.00011327,
 -0.00016095,0.03639483,0.07022187,-0.07130173,-0.02978187,-0.07305231,
 0.07876128,-0.02629090,0.02691472,0.01226408,0.00095205,0.00266057,0.0
 0101369,0.00047733,-0.00057247,0.00006706,0.00030419,-0.00004210,-0.00
 006345,-0.00372414,-0.00295643,-0.00409566,0.00008470,-0.00007269,0.00
 011693,-0.00096394,0.00135765,0.00068859,0.00011507,-0.00028729,-0.000
 04482,-0.00001247,-0.00000111,-0.00002581,-0.00003883,-0.00002041,0.00
 006739,0.00006049,0.00003332,-0.00008925,-0.00002553,-0.00048433,-0.00
 014040,0.00022729,0.00012972,0.00010759,0.00018314,0.00014608,0.000061
 93,0.00003658,0.00006072,-0.00002614,-0.10189623,0.08692837,0.05674445
 ,0.00799828,-0.01013219,-0.00703871,0.11859809,-0.00207561,-0.00059050
 ,0.00020233,-0.00215267,0.00051666,0.00021235,-0.00048707,0.00024902,0
 .00019891,-0.00014546,0.00021885,0.00009669,-0.00083170,0.00055089,0.0
 0036437,0.00002617,-0.00006335,-0.00001242,0.00003195,0.00008998,-0.00
 002684,-0.00005550,0.00004574,-0.00002457,-0.00001116,-0.00002519,-0.0
 0000165,0.00000966,0.00000169,-0.00001977,-0.00005136,-0.00000378,0.00
 001264,0.00008701,0.00010006,-0.00027290,0.00012488,0.00021259,0.00017
 524,0.00012001,-0.00000805,0.00006105,-0.00003138,0.00002790,0.0000242
 1,0.09863116,-0.21234963,-0.10220282,0.01209093,-0.01592633,-0.0120563
 2,-0.10177364,0.21951104,-0.01048661,0.01104081,0.00467431,-0.00040741
 ,0.00071948,0.00049944,0.00021485,0.00017620,0.00004906,-0.00006700,0.
 00015211,-0.00005832,-0.00220689,-0.00053135,-0.00075095,-0.00025244,0
 .00009865,0.00003522,-0.00045780,0.00044902,0.00030902,-0.00013298,-0.
 00004537,-0.00008690,-0.00000404,-0.00002286,0.00001779,-0.00000326,-0
 .00001368,0.00004094,-0.00002902,0.00001246,0.00001968,-0.00011675,-0.
 00016970,0.00004672,0.00003103,-0.00002747,-0.00004586,-0.00002245,0.0
 0003870,-0.00001169,0.00004366,-0.00000386,-0.00002241,0.06305997,-0.1
 0490039,-0.11478134,-0.00446939,0.00707521,0.00442893,-0.05808611,0.10
 817613,0.12393511,-0.00561310,0.00612175,-0.04202460,0.00139083,0.0015
 7351,0.00008651,-0.00003541,-0.00035186,0.00006860,-0.00007263,-0.0003
 6875,0.00014957,0.00173292,-0.00180534,-0.00128049,-0.00075161,0.00068
 617,-0.00039795,0.00003305,0.00003569,0.00013528,-0.00132234,-0.001111
 11,0.00126554,-0.00215636,-0.00066953,-0.00136359,-0.00030991,0.000012
 79,-0.00020022,-0.00016380,-0.00001534,-0.00017644,-0.00029927,0.00000
 280,0.00013083,-0.00000837,0.00019898,-0.00009455,0.00009024,0.0001007
 1,0.00002538,0.00007674,-0.00005508,0.00002987,-0.07970811,0.00024506,
 0.00856213,0.00159466,0.00054671,0.01268489,0.00234338,-0.00373336,0.0
 1431847,0.59121761,0.00056175,0.00054860,-0.00028901,-0.00002814,0.000
 34240,-0.00119623,0.00006826,-0.00002509,-0.00015160,-0.00002893,-0.00
 010378,0.00013109,-0.00065671,0.00025859,0.00083241,0.00062177,-0.0001
 3621,0.00024813,-0.00000587,0.00000003,-0.00015350,0.00097641,0.000619
 04,0.00015565,-0.00088828,-0.00027700,0.00038487,0.00027673,0.00008352
 ,0.00012148,0.00020706,-0.00002087,0.00009965,-0.00012349,-0.00019875,
 0.00034814,0.00003641,-0.00004924,0.00012534,0.00002733,0.00004544,-0.
 00006101,0.00009327,0.00004652,-0.00008006,0.00026960,-0.08874426,0.01
 913763,0.00274564,-0.00024212,0.02934383,-0.00278122,0.00574198,-0.024
 28575,0.00194693,0.59932460,-0.00755604,0.00165478,-0.01008217,0.00001
 670,-0.00032942,0.00062627,0.00014844,-0.00025640,-0.00006429,0.000273
 12,-0.00002087,0.00003314,-0.00034334,0.00003345,0.00111706,-0.0002901
 7,0.00055685,-0.00021235,0.00029746,-0.00032916,-0.00000577,-0.0008210
 1,-0.00039199,0.00046167,-0.00042443,0.00001481,-0.00046305,-0.0001884
 9,-0.00000685,-0.00018732,-0.00009644,0.00000776,-0.00011673,-0.000042
 80,-0.00004719,-0.00051968,0.00011670,0.00015938,0.00015057,0.00005775
 ,-0.00004860,0.00007253,0.00003753,0.00001080,0.00005891,0.00141981,0.
 01839886,-0.23074617,-0.00087890,0.00024682,-0.00984721,-0.00110654,0.
 00415817,-0.01559274,-0.02023114,0.00648942,0.51243180,0.00071731,-0.0
 0058384,0.00054820,-0.00014190,-0.00029048,-0.00005631,0.00001197,0.00
 002680,0.00000648,0.00002442,0.00003565,0.00000859,-0.00070523,0.00031
 558,-0.00078615,-0.00177162,0.00067890,-0.00161377,0.00009334,-0.00013
 812,0.00000560,0.00011500,0.00014993,-0.00001839,0.00009000,-0.0000433
 5,0.00007794,0.00004456,0.00001527,0.00001374,0.00001120,0.00000991,0.
 00000953,-0.00010637,-0.00004540,-0.00007932,0.00007213,-0.00007684,0.
 00011570,-0.00001364,-0.00002762,0.00000273,0.00001857,-0.00003969,0.0
 0001264,0.00094128,-0.00394845,-0.00366617,-0.00005999,0.00018494,0.00
 027796,0.00094644,0.00003618,-0.00089734,-0.11486793,0.09976946,0.0702
 8213,0.12023040,0.00066074,-0.00000871,-0.00055205,0.00007386,-0.00006
 187,0.00001912,-0.00001451,0.00000739,0.00003274,-0.00002522,0.0000166
 1,0.00001417,0.00047077,0.00008791,0.00009749,0.00045682,0.00006066,0.
 00048747,-0.00005302,0.00003077,0.00007841,0.00003598,0.00013498,-0.00
 006557,0.00014160,-0.00006346,0.00003279,0.00003488,-0.00000099,0.0000
 4581,-0.00002398,-0.00001084,-0.00000951,0.00022908,0.00006706,0.00018
 192,-0.00012704,-0.00006717,0.00000337,0.00000006,0.00000359,0.0000058
 9,-0.00005983,-0.00000788,-0.00003171,-0.00490975,0.00486607,0.0025307
 6,-0.00034990,0.00049044,-0.00042763,0.00035785,0.00092255,0.00123371,
 0.10013466,-0.19206488,-0.09776166,-0.10886622,0.19848989,0.00026110,-
 0.00051365,0.00167311,-0.00004393,0.00007943,-0.00012290,0.00006927,0.
 00009014,0.00002030,-0.00003832,-0.00001823,-0.00000361,-0.00050124,-0
 .00012501,-0.00090975,-0.00178690,0.00037970,-0.00078648,-0.00006465,0
 .00003986,0.00030794,0.00000668,-0.00002065,-0.00000651,-0.00008421,-0
 .00001087,-0.00005120,-0.00001496,0.00000861,0.00001258,-0.00001764,0.
 00000309,0.00001204,-0.00003505,0.00010032,-0.00000092,0.00001420,0.00
 014836,-0.00010221,0.00002023,-0.00002300,0.00001331,0.00001516,-0.000
 06023,0.00005535,0.01771292,-0.02455510,-0.01497266,-0.00018212,0.0001
 8911,0.00113133,-0.00104867,0.00160932,-0.00578225,0.06856122,-0.09651
 222,-0.11541760,-0.07291106,0.10514569,0.12617641,0.00201025,0.0001592
 8,0.00042541,0.00012846,0.00007832,0.00021052,0.00000273,-0.00000013,-
 0.00000162,0.00000396,-0.00000216,-0.00002275,0.00011702,-0.00020360,0
 .00016397,0.00018011,-0.00003205,-0.00010245,0.00000796,0.00000198,-0.
 00006041,0.00000321,-0.00012660,0.00028491,-0.00008428,0.00002689,-0.0
 0028432,-0.00006352,0.00000459,-0.00005685,-0.00003901,-0.00000878,-0.
 00004281,-0.00002033,-0.00002525,-0.00000673,-0.00002012,-0.00001811,-
 0.00001744,-0.00000650,0.00001241,-0.00000972,0.00001648,0.00001426,-0
 .00000691,-0.00164507,-0.00005951,0.00135670,0.00059696,0.00009895,0.0
 0003660,0.00026642,-0.00000488,-0.00022131,-0.31087819,-0.01974050,-0.
 06789227,-0.01154323,-0.00258390,-0.00428643,0.32798818,0.00077965,0.0
 0030770,0.00131973,0.00014946,-0.00016566,0.00043916,0.00002520,0.0000
 2539,0.00003778,0.00006405,0.00009669,-0.00005574,-0.00006465,0.000220
 01,0.00001082,-0.00020515,-0.00001640,0.00007606,-0.00002365,0.0000257
 2,0.00008787,-0.00022150,-0.00019660,0.00033563,-0.00013080,0.00007410
 ,-0.00044636,-0.00012320,-0.00000410,-0.00011789,-0.00009828,-0.000014
 04,-0.00008958,0.00003268,0.00004161,-0.00002215,-0.00000184,0.0000177
 4,0.00000645,0.00000164,-0.00002002,0.00001592,-0.00002288,-0.00001332
 ,0.00000918,0.00391103,-0.00175881,0.00059988,0.00040596,0.00031518,-0
 .00025748,-0.00010607,0.00016918,0.00011990,-0.02054856,-0.04635435,-0
 .00497768,0.02104505,0.00237734,0.00706848,0.02126807,0.04460505,-0.00
 055773,0.00106485,-0.00839981,0.00056788,0.00087880,-0.00011658,-0.000
 00153,-0.00008588,0.00004693,-0.00012690,-0.00020642,0.00004267,0.0009
 0835,-0.00089470,-0.00042558,-0.00006163,0.00002382,0.00019585,-0.0001
 3757,0.00013197,0.00012528,0.00015345,0.00003144,-0.00009140,-0.000021
 01,-0.00005931,0.00016621,0.00001194,-0.00001181,0.00011810,0.00001228
 ,0.00000521,0.00003541,-0.00010466,0.00002762,0.00009937,0.00002285,-0
 .00001463,-0.00001546,0.00002498,0.00007332,-0.00001244,0.00000776,-0.
 00001998,-0.00000582,-0.03175645,-0.00234954,-0.00600004,-0.00025668,0
 .00040784,0.00123754,0.00010821,-0.00057641,0.00083903,-0.06422112,-0.
 00458550,-0.06185842,0.01532132,0.00246394,0.00399200,0.07254369,0.003
 92372,0.06864279,0.00071047,0.00058408,0.00060360,0.00001028,-0.000072
 42,-0.00022190,0.00002775,0.00000843,0.00003386,-0.00000631,-0.0000204
 0,0.00009169,-0.00006781,0.00019087,0.00011383,0.00002618,0.00002147,0
 .00003228,0.00001868,-0.00002101,-0.00002620,-0.00214766,-0.00046005,-
 0.00061877,-0.00377509,-0.00105648,-0.00048403,-0.00005986,0.00000890,
 -0.00003066,0.00001624,0.00001080,0.00011216,0.00001910,-0.00007796,-0
 .00003863,0.00002308,-0.00005925,0.00004442,0.00000338,-0.00001228,0.0
 0000145,-0.00003141,-0.00000101,-0.00001021,-0.00022220,0.00410489,-0.
 00185976,0.00129083,0.00003891,-0.00044276,-0.00012251,-0.00039277,0.0
 0019763,-0.07609801,-0.08327127,0.02740712,0.00572515,0.01458548,-0.00
 591195,-0.00680688,-0.02629864,0.00921065,0.08138522,-0.00018435,-0.00
 013371,0.00041900,0.00030420,-0.00006294,0.00067845,0.00010396,-0.0000
 8315,0.00001229,0.00006349,0.00000238,-0.00006605,0.00002737,0.0000008
 2,0.00002728,-0.00007370,-0.00004534,0.,0.00001437,-0.00001856,0.00004
 037,-0.00122577,-0.00048812,0.00020539,-0.00129765,0.00012560,-0.00070
 197,-0.00026916,-0.00005955,-0.00024227,-0.00019587,-0.00000657,-0.000
 11144,-0.00000502,0.00005782,-0.00003057,-0.00000140,0.00008227,-0.000
 02167,0.00000095,-0.00000980,0.00000849,0.00001331,0.00001377,0.000008
 67,0.00020561,-0.00022185,-0.00066551,0.00004892,0.00127407,0.00011435
 ,0.00038849,0.00083307,0.00020487,-0.08316581,-0.27932691,0.07257769,-
 0.00832770,-0.01524166,0.00688272,0.00119783,0.00015471,-0.00027220,0.
 09225016,0.29311155,-0.00016444,-0.00029510,0.00128288,-0.00061649,0.0
 0031283,-0.00053029,0.00005391,-0.00002492,-0.00004119,-0.00000477,-0.
 00009896,0.00004916,0.00003494,-0.00010807,-0.00019557,-0.00001359,0.0
 0004929,-0.00001732,-0.00005872,0.00004401,0.00003030,-0.00040512,-0.0
 0013731,-0.00031253,-0.00035638,-0.00003016,0.00033024,0.00003607,0.00
 000829,0.00010597,0.00011069,0.00000416,0.00010282,0.00002076,0.000030
 80,0.00004427,-0.00000249,-0.00004029,-0.00006116,-0.00003871,0.000002
 78,-0.00000315,0.00001490,-0.00000894,0.00002212,0.01354984,0.03121456
 ,-0.00869112,-0.00117493,0.00025849,-0.00618721,-0.00006051,-0.0003042
 0,0.00153768,0.02594143,0.06997770,-0.07079682,-0.00672370,-0.01345889
 ,0.00447277,-0.00217419,-0.00816514,0.00171590,-0.02816626,-0.07904429
 ,0.07693554,-0.05656023,-0.01025108,0.05209146,-0.00529484,-0.00712074
 ,0.01587610,0.00017071,0.00029919,-0.00024610,-0.00016322,-0.00036172,
 0.00055392,-0.00505338,-0.00041407,0.02242575,-0.00185717,0.00279885,0
 .00070423,-0.00021767,-0.00038907,0.00029729,-0.00058143,-0.00291867,-
 0.00091720,0.00008470,0.00001182,-0.00005113,-0.00039209,-0.00020037,0
 .00065189,0.00010398,0.00019690,-0.00010391,0.00090251,-0.00047755,-0.
 00116387,-0.00004354,-0.00004397,-0.00003217,-0.00021478,-0.00026722,-
 0.00005764,0.00025469,0.00033729,-0.00006334,-0.00191327,0.00667208,-0
 .03683670,0.00061331,-0.00053530,-0.00031848,0.00048109,0.00058862,-0.
 00000482,-0.00619438,-0.00007622,-0.00018520,0.00016816,-0.00016839,0.
 00026637,-0.00021461,0.00016244,-0.00164807,0.00008139,0.00012778,0.00
 019777,0.07584006,-0.00989430,-0.06541879,0.07148337,-0.00990725,-0.01
 094812,0.02962345,0.00039168,-0.00029591,0.00025087,-0.00028622,0.0012
 4109,0.00024223,0.00703340,0.00228671,-0.03056876,0.00305014,-0.004030
 10,-0.00145410,-0.00028227,0.00067065,0.00045251,-0.00118075,-0.004502
 36,-0.00189107,0.00025003,0.00010097,-0.00020329,-0.00081356,-0.000237
 40,0.00101971,0.00000733,0.00012410,-0.00013698,0.00002786,0.00081872,
 -0.00194897,-0.00000813,-0.00005151,0.00013994,0.00005878,0.00023803,0
 .00035901,-0.00031372,-0.00048383,0.00103071,-0.00002602,0.00032473,0.
 00140786,-0.00061039,0.00029304,-0.00084302,0.00025245,-0.00022438,0.0
 0050320,0.00021899,0.00053276,-0.00013896,0.00012006,-0.00002779,0.000
 09414,-0.00005710,0.00011288,0.00004385,-0.00006041,0.00004210,-0.0001
 8664,0.01202941,0.07943443,0.05278317,0.07110731,-0.39361222,-0.000783
 19,0.00078150,0.00256323,-0.00000905,-0.00018102,-0.00011552,-0.000926
 85,-0.00153868,0.00145614,0.00479877,-0.00158665,-0.01153215,0.0008665
 5,-0.00088068,0.00096549,-0.00032674,0.00040289,0.00076015,-0.00022887
 ,-0.00101508,0.00067159,-0.00005975,-0.00002055,0.00022985,-0.00022359
 ,-0.00025840,0.00021475,-0.00004886,0.00008400,0.00003740,-0.00142886,
 0.00027849,0.00140572,0.00014166,0.00005485,-0.00003957,0.00019530,0.0
 0058727,0.00018838,-0.00008063,-0.00084541,-0.00034146,-0.00275292,0.0
 0257043,-0.01309036,0.00070700,-0.00037884,0.00070080,0.00058612,0.000
 20648,0.00069954,-0.00196963,-0.00008046,0.00095835,0.00006966,-0.0000
 6628,0.00028894,0.00016441,0.00008146,-0.00033153,-0.00003756,-0.00002
 359,0.00020672,-0.05143616,-0.06927905,0.40771575\\-0.00001697,0.00005
 881,-0.00002836,0.00002247,-0.00004575,0.00001757,-0.00002924,-0.00000
 069,-0.00001147,-0.00001880,0.00001407,0.00001127,-0.00000791,0.000013
 02,0.00000314,0.00001742,-0.00000534,0.00000507,-0.00000080,0.00000807
 ,0.00003089,-0.00001589,-0.00001452,-0.00001100,-0.00001095,-0.0000061
 2,-0.00000455,-0.00000576,0.00001012,0.00000725,0.00000644,0.00000339,
 0.00001014,0.00000461,0.00002138,0.00001121,0.00000794,-0.00001487,0.0
 0000045,0.00002126,0.00001500,0.00001399,-0.00000698,0.00000619,0.0000
 1729,-0.00000528,-0.00003453,0.00000191,0.00000375,0.00000305,0.000002
 04,-0.00000268,0.00001370,-0.00001846,-0.00000592,-0.00001218,-0.00002
 911,0.00001871,-0.00001422,-0.00002393,0.00001145,-0.00002401,-0.00001
 704,0.00002914,0.00000110,-0.00000263,-0.00001601,0.00000434,0.0000143
 3\\\@
 The archive entry for this job was punched.


 GARBAGE IN, GARBAGE OUT
 Job cpu time:       0 days  1 hours  0 minutes 19.0 seconds.
 Elapsed time:       0 days  0 hours  1 minutes 13.5 seconds.
 File lengths (MBytes):  RWF=    120 Int=      0 D2E=      0 Chk=     10 Scr=      1
 Normal termination of Gaussian 16 at Fri May 19 09:49:52 2023.
