
                                 *****************
                                 * O   R   C   A *
                                 *****************

                                            #,                                       
                                            ###                                      
                                            ####                                     
                                            #####                                    
                                            ######                                   
                                           ########,                                 
                                     ,,################,,,,,                         
                               ,,#################################,,                 
                          ,,##########################################,,             
                       ,#########################################, ''#####,          
                    ,#############################################,,   '####,        
                  ,##################################################,,,,####,       
                ,###########''''           ''''###############################       
              ,#####''   ,,,,##########,,,,          '''####'''          '####       
            ,##' ,,,,###########################,,,                        '##       
           ' ,,###''''                  '''############,,,                           
         ,,##''                                '''############,,,,        ,,,,,,###''
      ,#''                                            '''#######################'''  
     '                                                          ''''####''''         
             ,#######,   #######,   ,#######,      ##                                
            ,#'     '#,  ##    ##  ,#'     '#,    #''#        ######   ,####,        
            ##       ##  ##   ,#'  ##            #'  '#       #        #'  '#        
            ##       ##  #######   ##           ,######,      #####,   #    #        
            '#,     ,#'  ##    ##  '#,     ,#' ,#      #,         ##   #,  ,#        
             '#######'   ##     ##  '#######'  #'      '#     #####' # '####'        



                  #######################################################
                  #                        -***-                        #
                  #          Department of theory and spectroscopy      #
                  #    Directorship and core code : Frank Neese         #
                  #        Max Planck Institute fuer Kohlenforschung    #
                  #                Kaiser Wilhelm Platz 1               #
                  #                 D-45470 Muelheim/Ruhr               #
                  #                      Germany                        #
                  #                                                     #
                  #                  All rights reserved                #
                  #                        -***-                        #
                  #######################################################


                         Program Version 5.0.3 -  RELEASE  -


 With contributions from (in alphabetic order):
   Daniel Aravena         : Magnetic Suceptibility
   Michael Atanasov       : Ab Initio Ligand Field Theory (pilot matlab implementation)
   Alexander A. Auer      : GIAO ZORA, VPT2 properties, NMR spectrum
   Ute Becker             : Parallelization
   Giovanni Bistoni       : ED, misc. LED, open-shell LED, HFLD
   Martin Brehm           : Molecular dynamics
   Dmytro Bykov           : SCF Hessian
   Vijay G. Chilkuri      : MRCI spin determinant printing, contributions to CSF-ICE
   Dipayan Datta          : RHF DLPNO-CCSD density
   Achintya Kumar Dutta   : EOM-CC, STEOM-CC
   Dmitry Ganyushin       : Spin-Orbit,Spin-Spin,Magnetic field MRCI
   Miquel Garcia          : C-PCM and meta-GGA Hessian, CC/C-PCM, Gaussian charge scheme
   Yang Guo               : DLPNO-NEVPT2, F12-NEVPT2, CIM, IAO-localization
   Andreas Hansen         : Spin unrestricted coupled pair/coupled cluster methods
   Benjamin Helmich-Paris : MC-RPA, TRAH-SCF, COSX integrals
   Lee Huntington         : MR-EOM, pCC
   Robert Izsak           : Overlap fitted RIJCOSX, COSX-SCS-MP3, EOM
   Marcus Kettner         : VPT2
   Christian Kollmar      : KDIIS, OOCD, Brueckner-CCSD(T), CCSD density, CASPT2, CASPT2-K
   Simone Kossmann        : Meta GGA functionals, TD-DFT gradient, OOMP2, MP2 Hessian
   Martin Krupicka        : Initial AUTO-CI
   Lucas Lang             : DCDCAS
   Marvin Lechner         : AUTO-CI (C++ implementation), FIC-MRCC
   Dagmar Lenk            : GEPOL surface, SMD
   Dimitrios Liakos       : Extrapolation schemes; Compound Job, initial MDCI parallelization
   Dimitrios Manganas     : Further ROCIS development; embedding schemes
   Dimitrios Pantazis     : SARC Basis sets
   Anastasios Papadopoulos: AUTO-CI, single reference methods and gradients
   Taras Petrenko         : DFT Hessian,TD-DFT gradient, ASA, ECA, R-Raman, ABS, FL, XAS/XES, NRVS
   Peter Pinski           : DLPNO-MP2, DLPNO-MP2 Gradient
   Christoph Reimann      : Effective Core Potentials
   Marius Retegan         : Local ZFS, SOC
   Christoph Riplinger    : Optimizer, TS searches, QM/MM, DLPNO-CCSD(T), (RO)-DLPNO pert. Triples
   Tobias Risthaus        : Range-separated hybrids, TD-DFT gradient, RPA, STAB
   Michael Roemelt        : Original ROCIS implementation
   Masaaki Saitow         : Open-shell DLPNO-CCSD energy and density
   Barbara Sandhoefer     : DKH picture change effects
   Avijit Sen             : IP-ROCIS
   Kantharuban Sivalingam : CASSCF convergence, NEVPT2, FIC-MRCI
   Bernardo de Souza      : ESD, SOC TD-DFT
   Georgi Stoychev        : AutoAux, RI-MP2 NMR, DLPNO-MP2 response
   Willem Van den Heuvel  : Paramagnetic NMR
   Boris Wezisla          : Elementary symmetry handling
   Frank Wennmohs         : Technical directorship


 We gratefully acknowledge several colleagues who have allowed us to
 interface, adapt or use parts of their codes:
   Stefan Grimme, W. Hujo, H. Kruse, P. Pracht,  : VdW corrections, initial TS optimization,
                  C. Bannwarth, S. Ehlert          DFT functionals, gCP, sTDA/sTD-DF
   Ed Valeev, F. Pavosevic, A. Kumar             : LibInt (2-el integral package), F12 methods
   Garnet Chan, S. Sharma, J. Yang, R. Olivares  : DMRG
   Ulf Ekstrom                                   : XCFun DFT Library
   Mihaly Kallay                                 : mrcc  (arbitrary order and MRCC methods)
   Jiri Pittner, Ondrej Demel                    : Mk-CCSD
   Frank Weinhold                                : gennbo (NPA and NBO analysis)
   Christopher J. Cramer and Donald G. Truhlar   : smd solvation model
   Lars Goerigk                                  : TD-DFT with DH, B97 family of functionals
   V. Asgeirsson, H. Jonsson                     : NEB implementation
   FAccTs GmbH                                   : IRC, NEB, NEB-TS, DLPNO-Multilevel, CI-OPT
                                                   MM, QMMM, 2- and 3-layer-ONIOM, Crystal-QMMM,
                                                   LR-CPCM, SF, NACMEs, symmetry and pop. for TD-DFT,
                                                   nearIR, NL-DFT gradient (VV10), updates on ESD,
                                                   ML-optimized integration grids
   S Lehtola, MJT Oliveira, MAL Marques          : LibXC Library
   Liviu Ungur et al                             : ANISO software


 Your calculation uses the libint2 library for the computation of 2-el integrals
 For citations please refer to: http://libint.valeyev.net

 Your ORCA version has been built with support for libXC version: 5.1.0
 For citations please refer to: https://tddft.org/programs/libxc/

 This ORCA versions uses:
   CBLAS   interface :  Fast vector & matrix operations
   LAPACKE interface :  Fast linear algebra routines
   SCALAPACK package :  Parallel linear algebra routines
   Shared memory     :  Shared parallel matrices
   BLAS/LAPACK       :  OpenBLAS 0.3.15  USE64BITINT DYNAMIC_ARCH NO_AFFINITY Prescott SINGLE_THREADED
        Core in use  :  Prescott
   Copyright (c) 2011-2014, The OpenBLAS Project


Your calculation utilizes the atom-pairwise dispersion correction
with the zero-damping scheme (D30)
Cite in your paper:
S.Grimme, J.Antony, S.Ehrlich and H.Krieg, J.Chem.Phys., 132, (2010), 154104 
   

XCFun DFT library Copyright 2009-2010 Ulf Ekstrom and contributors.
See http://admol.org/xcfun for more information.
This is free software; see the source code for copying conditions.
There is ABSOLUTELY NO WARRANTY; not even for MERCHANTABILITY or FITNESS FOR A PARTICULAR PURPOSE.
For details see the documentation.
Scientific users of this library should cite U. Ekstrom, L. Visscher, R. Bast, A. J. Thorvaldsen and K. Ruud;
J.Chem.Theor.Comp. 2010, DOI: 10.1021/ct100117s
XCFun Version 0.99 

================================================================================

----- Orbital basis set information -----
Your calculation utilizes the basis: 6-31G(d,p)
   H-He, Li-Ne : W. J. Hehre, R. Ditchfield and J.A. Pople, J. Chem. Phys. 56, 2257 (1972).
                 Note: He and Ne are unpublished basis sets taken from the Gaussian program.
                 Note: Li and B from J. D. Dill and J. A. Pople, J. Chem. Phys. 62, 2921 (1975).
   Na - Ar     : M. M. Francl, W. J. Pietro, W. J. Hehre, J. S. Binkley, M. S. Gordon, 
                 D. J. DeFrees and J. A. Pople, J. Chem. Phys. 77, 3654 (1982).
   K - Zn      : V. A. Rassolov, J. A. Pople, M. A. Ratner, and T. L. Windus, J. Chem. Phys. 109, 1223 (1998).

----- AuxJ basis set information -----
Your calculation utilizes the auxiliary basis: def2/J
   F. Weigend, Phys. Chem. Chem. Phys. 8, 1057 (2006).

================================================================================
                                        WARNINGS
                       Please study these warnings very carefully!
================================================================================


WARNING: your system is open-shell and RHF/RKS was chosen
  ===> : WILL SWITCH to UHF/UKS


WARNING: Geometry Optimization
  ===> : Switching off AutoStart
         For restart on a previous wavefunction, please use MOREAD

INFO   : the flag for use of the SHARK integral package has been found!

================================================================================
                                       INPUT FILE
================================================================================
NAME = T1_TS-I-C_5_1.inp
|  1> # T1_TS-I-C_5_1
|  2> %maxcore 10000
|  3> %pal nprocs 12 end
|  4> ! wb97x-d3 6-31g(d,p) OPT NormalPNO TightSCF FREQ DEFGRID3 CPCM(CH2CL2)
|  5> %geom
|  6> Calc_Hess true
|  7> end
|  8> * xyz 0 3
|  9>  C  -4.31681400   1.76330800  -0.37387000
| 10>  C  -2.91609700   1.60409700  -0.40109900
| 11>  C  -2.11796100   2.76424100  -0.47168400
| 12>  C  -2.70583300   4.02345600  -0.53052000
| 13>  C  -4.09443300   4.16330400  -0.51143500
| 14>  C  -4.89770400   3.02438300  -0.43124600
| 15>  C  -2.39187600   0.25236400  -0.28816900
| 16>  C  -1.07205800  -0.19070900  -0.64034300
| 17>  C  -0.75249300  -1.59667300  -0.67147900
| 18>  S   0.93967400  -1.81717600  -1.01076900
| 19>  C   1.11242700  -0.06481800  -1.02203900
| 20>  N  -0.00962400   0.60547000  -0.84913200
| 21>  C   2.40059900   0.58149300  -1.19417900
| 22>  C   2.44798100   1.98251000  -1.30670300
| 23>  C   3.66873100   2.62857700  -1.43995300
| 24>  C   4.85415200   1.89123300  -1.45621600
| 25>  C   4.81567000   0.50092100  -1.34145500
| 26>  C   3.59786300  -0.15307700  -1.21111400
| 27>  O  -1.62734800  -2.51799300  -0.51517400
| 28>  H  -4.54583800   5.14966000  -0.55714800
| 29>  H  -4.94816900   0.88072200  -0.31214700
| 30>  H   3.58948500  -1.23450500  -1.10865200
| 31>  H   5.73585200  -0.07382600  -1.34930000
| 32>  H   5.80785500   2.39965800  -1.55787800
| 33>  H   3.69827300   3.70966700  -1.52928200
| 34>  H   1.52382300   2.54918800  -1.28850900
| 35>  H  -1.03896400   2.67158300  -0.48270400
| 36>  H  -2.07321300   4.90447200  -0.58863100
| 37>  H  -5.97929000   3.11966200  -0.41472900
| 38>  H  -3.13535400  -0.53863200  -0.31357600
| 39>  B  -1.30987300  -3.99983900  -0.33350000
| 40>  F  -2.53619300  -4.64154900  -0.32657400
| 41>  F  -0.50548800  -4.41105900  -1.39771000
| 42>  F  -0.63647700  -4.14416600   0.88058400
| 43>  C  -0.79119200  -0.60904600   2.16627600
| 44>  C  -2.00537600   0.02209700   1.93910800
| 45>  H  -2.91753900  -0.55517000   2.04374300
| 46>  H  -2.10584000   1.09677200   2.04244800
| 47>  H  -0.79042100  -1.69398800   2.24438600
| 48>  C   0.49989200   0.03418300   2.25109600
| 49>  C   1.64831200  -0.77500100   2.39332800
| 50>  C   0.67761500   1.43261200   2.15207300
| 51>  C   2.91821700  -0.21503300   2.42384800
| 52>  H   1.52678000  -1.85237100   2.46737800
| 53>  C   1.94836100   1.98693800   2.18652400
| 54>  H  -0.18059600   2.08598900   2.03380700
| 55>  C   3.07416200   1.16826900   2.31597200
| 56>  H   3.78917500  -0.85554700   2.52201800
| 57>  H   2.06816800   3.06242200   2.09973200
| 58>  H   4.06710100   1.60710200   2.32714500
| 59> **                         ****END OF INPUT****
================================================================================

                       *****************************
                       * Geometry Optimization Run *
                       *****************************

Geometry optimization settings:
Update method            Update   .... Bofill
Choice of coordinates    CoordSys .... Z-matrix Internals
Initial Hessian          InHess   .... Almoef's Model

Convergence Tolerances:
Energy Change            TolE     ....  5.0000e-06 Eh
Max. Gradient            TolMAXG  ....  3.0000e-04 Eh/bohr
RMS Gradient             TolRMSG  ....  1.0000e-04 Eh/bohr
Max. Displacement        TolMAXD  ....  4.0000e-03 bohr
RMS Displacement         TolRMSD  ....  2.0000e-03 bohr
Strict Convergence                ....  False
------------------------------------------------------------------------------
                        ORCA OPTIMIZATION COORDINATE SETUP
------------------------------------------------------------------------------

The optimization will be done in new redundant internal coordinates
Making redundant internal coordinates   ...  (new redundants) done
Following TS mode number                ...     0
Evaluating the initial hessian          ...  (Is done on the fly) done
Evaluating the coordinates              ...  done
Calculating the B-matrix                .... done
Calculating the G-matrix                .... done
Diagonalizing the G-matrix              .... done
Small eigenvalue found = 2.767e-03
Small eigenvalue found = 6.684e-03
Small eigenvalue found = 8.237e-03
Small eigenvalue found = 2.260e-02
Small eigenvalue found = 2.482e-02
The first mode is                       ....  190
The number of degrees of freedom        ....  144

    -----------------------------------------------------------------
                    Redundant Internal Coordinates


    -----------------------------------------------------------------
         Definition                    Initial Value    d2E/dq (diagonal element)
    -----------------------------------------------------------------
      1. B(C   1,C   0)                  1.4100         0.000000   
      2. B(C   2,C   1)                  1.4099         0.000000   
      3. B(C   3,C   2)                  1.3909         0.000000   
      4. B(C   4,C   3)                  1.3958         0.000000   
      5. B(C   5,C   0)                  1.3896         0.000000   
      6. B(C   5,C   4)                  1.3960         0.000000   
      7. B(C   6,C   1)                  1.4542         0.000000   
      8. B(C   7,C   6)                  1.4361         0.000000   
      9. B(C   8,C   7)                  1.4422         0.000000   
     10. B(S   9,C   8)                  1.7399         0.000000   
     11. B(C  10,S   9)                  1.7609         0.000000   
     12. B(N  11,C  10)                  1.3184         0.000000   
     13. B(N  11,C   7)                  1.3440         0.000000   
     14. B(C  12,C  10)                  1.4515         0.000000   
     15. B(C  13,C  12)                  1.4063         0.000000   
     16. B(C  14,C  13)                  1.3876         0.000000   
     17. B(C  15,C  14)                  1.3961         0.000000   
     18. B(C  16,C  15)                  1.3956         0.000000   
     19. B(C  17,C  16)                  1.3884         0.000000   
     20. B(C  17,C  12)                  1.4047         0.000000   
     21. B(O  18,C   8)                  1.2801         0.000000   
     22. B(H  19,C   4)                  1.0857         0.000000   
     23. B(H  20,C   0)                  1.0869         0.000000   
     24. B(H  21,C  17)                  1.0863         0.000000   
     25. B(H  22,C  16)                  1.0850         0.000000   
     26. B(H  23,C  15)                  1.0855         0.000000   
     27. B(H  24,C  14)                  1.0852         0.000000   
     28. B(H  25,C  13)                  1.0842         0.000000   
     29. B(H  26,C   2)                  1.0830         0.000000   
     30. B(H  27,C   3)                  1.0862         0.000000   
     31. B(H  28,C   5)                  1.0859         0.000000   
     32. B(H  29,C   6)                  1.0859         0.000000   
     33. B(B  30,O  18)                  1.5263         0.000000   
     34. B(F  31,B  30)                  1.3841         0.000000   
     35. B(F  32,B  30)                  1.3960         0.000000   
     36. B(F  33,B  30)                  1.3958         0.000000   
     37. B(C  34,C   7)                  2.8515         0.000000   
     38. B(C  35,H  29)                  2.5818         0.000000   
     39. B(C  35,C   7)                  2.7514         0.000000   
     40. B(C  35,C   6)                  2.2723         0.000000   
     41. B(C  35,C  34)                  1.3872         0.000000   
     42. B(H  36,H  29)                  2.3674         0.000000   
     43. B(H  36,C   6)                  2.5231         0.000000   
     44. B(H  36,C  35)                  1.0845         0.000000   
     45. B(H  37,C   6)                  2.4953         0.000000   
     46. B(H  37,C   1)                  2.6239         0.000000   
     47. B(H  37,C  35)                  1.0843         0.000000   
     48. B(H  38,F  33)                  2.8084         0.000000   
     49. B(H  38,C   8)                  2.9177         0.000000   
     50. B(H  38,C  34)                  1.0878         0.000000   
     51. B(C  39,C  34)                  1.4449         0.000000   
     52. B(C  40,C  39)                  1.4120         0.000000   
     53. B(C  41,C  39)                  1.4132         0.000000   
     54. B(C  42,C  40)                  1.3882         0.000000   
     55. B(H  43,C  40)                  1.0867         0.000000   
     56. B(C  44,C  41)                  1.3868         0.000000   
     57. B(H  45,H  26)                  2.7226         0.000000   
     58. B(H  45,C  41)                  1.0851         0.000000   
     59. B(C  46,C  44)                  1.3980         0.000000   
     60. B(C  46,C  42)                  1.3962         0.000000   
     61. B(H  47,C  42)                  1.0856         0.000000   
     62. B(H  48,C  44)                  1.0856         0.000000   
     63. B(H  49,C  46)                  1.0856         0.000000   
     64. B(H  49,C  15)                  3.8748         0.000000   
     65. A(C   5,C   0,H  20)          119.7640         0.000000   
     66. A(C   1,C   0,H  20)          119.1078         0.000000   
     67. A(C   1,C   0,C   5)          121.1274         0.000000   
     68. A(C   0,C   1,C   2)          118.0607         0.000000   
     69. A(C   2,C   1,C   6)          124.3794         0.000000   
     70. A(C   0,C   1,C   6)          117.4884         0.000000   
     71. A(C   3,C   2,H  26)          119.8743         0.000000   
     72. A(C   1,C   2,C   3)          120.5161         0.000000   
     73. A(C   1,C   2,H  26)          119.6094         0.000000   
     74. A(C   4,C   3,H  27)          119.9276         0.000000   
     75. A(C   2,C   3,H  27)          119.3676         0.000000   
     76. A(C   2,C   3,C   4)          120.7045         0.000000   
     77. A(C   3,C   4,H  19)          120.2710         0.000000   
     78. A(C   5,C   4,H  19)          120.2896         0.000000   
     79. A(C   3,C   4,C   5)          119.4393         0.000000   
     80. A(C   0,C   5,H  28)          119.6934         0.000000   
     81. A(C   4,C   5,H  28)          120.1598         0.000000   
     82. A(C   0,C   5,C   4)          120.1468         0.000000   
     83. A(C   7,C   6,H  29)          113.5020         0.000000   
     84. A(H  29,C   6,C  35)           93.7600         0.000000   
     85. A(C   1,C   6,C   7)          126.8020         0.000000   
     86. A(C   1,C   6,H  29)          115.3712         0.000000   
     87. A(C   1,C   6,C  35)          103.3932         0.000000   
     88. A(C   7,C   6,C  35)           93.0260         0.000000   
     89. A(C   8,C   7,N  11)          113.5167         0.000000   
     90. A(C   6,C   7,N  11)          125.5808         0.000000   
     91. A(N  11,C   7,C  35)          111.5915         0.000000   
     92. A(C   6,C   7,C  35)           55.5600         0.000000   
     93. A(C   6,C   7,C  34)           83.9390         0.000000   
     94. A(C  34,C   7,C  35)           28.5970         0.000000   
     95. A(C   6,C   7,C   8)          120.6463         0.000000   
     96. A(C   8,C   7,C  35)           99.8351         0.000000   
     97. A(C   8,C   7,C  34)           81.7437         0.000000   
     98. A(N  11,C   7,C  34)           99.3203         0.000000   
     99. A(S   9,C   8,O  18)          126.6759         0.000000   
    100. A(C   7,C   8,O  18)          123.2018         0.000000   
    101. A(C   7,C   8,S   9)          110.0766         0.000000   
    102. A(C   8,S   9,C  10)           88.3120         0.000000   
    103. A(S   9,C  10,N  11)          114.9364         0.000000   
    104. A(N  11,C  10,C  12)          122.9900         0.000000   
    105. A(S   9,C  10,C  12)          122.0699         0.000000   
    106. A(C   7,N  11,C  10)          113.0774         0.000000   
    107. A(C  10,C  12,C  13)          118.8811         0.000000   
    108. A(C  13,C  12,C  17)          119.4237         0.000000   
    109. A(C  10,C  12,C  17)          121.6680         0.000000   
    110. A(C  14,C  13,H  25)          120.5406         0.000000   
    111. A(C  12,C  13,H  25)          119.3818         0.000000   
    112. A(C  12,C  13,C  14)          120.0776         0.000000   
    113. A(C  13,C  14,C  15)          120.1461         0.000000   
    114. A(C  15,C  14,H  24)          120.1373         0.000000   
    115. A(C  13,C  14,H  24)          119.7164         0.000000   
    116. A(C  14,C  15,C  16)          120.1175         0.000000   
    117. A(C  16,C  15,H  23)          119.9026         0.000000   
    118. A(C  14,C  15,H  23)          119.9799         0.000000   
    119. A(C  15,C  16,C  17)          120.0769         0.000000   
    120. A(C  17,C  16,H  22)          119.6732         0.000000   
    121. A(C  15,C  16,H  22)          120.2494         0.000000   
    122. A(C  12,C  17,C  16)          120.1573         0.000000   
    123. A(C  16,C  17,H  21)          118.9821         0.000000   
    124. A(C  12,C  17,H  21)          120.8546         0.000000   
    125. A(C   8,O  18,B  30)          124.8296         0.000000   
    126. A(F  32,B  30,F  33)          110.7717         0.000000   
    127. A(F  31,B  30,F  33)          112.0340         0.000000   
    128. A(O  18,B  30,F  33)          107.7139         0.000000   
    129. A(F  31,B  30,F  32)          112.1964         0.000000   
    130. A(O  18,B  30,F  32)          108.3675         0.000000   
    131. A(O  18,B  30,F  31)          105.4518         0.000000   
    132. A(H  38,C  34,C  39)          116.0505         0.000000   
    133. A(C  35,C  34,C  39)          126.0986         0.000000   
    134. A(C  35,C  34,H  38)          117.7878         0.000000   
    135. A(C   7,C  34,C  39)           94.6161         0.000000   
    136. A(C   7,C  34,H  38)          102.5375         0.000000   
    137. A(C   7,C  34,C  35)           71.6901         0.000000   
    138. A(H  36,C  35,H  37)          116.1309         0.000000   
    139. A(C  34,C  35,H  37)          121.0942         0.000000   
    140. A(C  34,C  35,H  36)          118.5684         0.000000   
    141. A(C   6,C  35,C   7)           31.4140         0.000000   
    142. A(C   7,C  35,H  37)          101.3874         0.000000   
    143. A(C   7,C  35,H  36)          109.5475         0.000000   
    144. A(C   7,C  35,C  34)           79.7129         0.000000   
    145. A(C   6,C  35,H  37)           88.6947         0.000000   
    146. A(C   6,C  35,H  36)           90.3121         0.000000   
    147. A(C   6,C  35,C  34)          110.8251         0.000000   
    148. A(C  40,C  39,C  41)          118.1552         0.000000   
    149. A(C  34,C  39,C  41)          123.2836         0.000000   
    150. A(C  34,C  39,C  40)          118.5232         0.000000   
    151. A(C  42,C  40,H  43)          120.0464         0.000000   
    152. A(C  39,C  40,H  43)          118.9491         0.000000   
    153. A(C  39,C  40,C  42)          121.0005         0.000000   
    154. A(C  44,C  41,H  45)          119.1267         0.000000   
    155. A(C  39,C  41,H  45)          120.2675         0.000000   
    156. A(C  39,C  41,C  44)          120.6002         0.000000   
    157. A(C  46,C  42,H  47)          120.1282         0.000000   
    158. A(C  40,C  42,H  47)          119.8621         0.000000   
    159. A(C  40,C  42,C  46)          120.0070         0.000000   
    160. A(C  46,C  44,H  48)          119.9119         0.000000   
    161. A(C  41,C  44,H  48)          119.6776         0.000000   
    162. A(C  41,C  44,C  46)          120.4060         0.000000   
    163. A(C  44,C  46,H  49)          120.0511         0.000000   
    164. A(C  42,C  46,H  49)          120.1208         0.000000   
    165. A(C  42,C  46,C  44)          119.8272         0.000000   
    166. D(C   2,C   1,C   0,H  20)   -179.5520         0.000000   
    167. D(C   6,C   1,C   0,H  20)     -2.4913         0.000000   
    168. D(C   2,C   1,C   0,C   5)      0.7724         0.000000   
    169. D(C   6,C   1,C   0,C   5)    177.8331         0.000000   
    170. D(H  26,C   2,C   1,C   0)    179.3148         0.000000   
    171. D(C   3,C   2,C   1,C   0)     -0.8486         0.000000   
    172. D(H  26,C   2,C   1,C   6)      2.4743         0.000000   
    173. D(C   3,C   2,C   1,C   6)   -177.6890         0.000000   
    174. D(C   4,C   3,C   2,H  26)   -179.7136         0.000000   
    175. D(H  27,C   3,C   2,C   1)   -179.7471         0.000000   
    176. D(C   4,C   3,C   2,C   1)      0.4502         0.000000   
    177. D(H  27,C   3,C   2,H  26)      0.0892         0.000000   
    178. D(H  19,C   4,C   3,C   2)    179.9665         0.000000   
    179. D(H  19,C   4,C   3,H  27)      0.1648         0.000000   
    180. D(C   5,C   4,C   3,H  27)   -179.7486         0.000000   
    181. D(C   5,C   4,C   3,C   2)      0.0531         0.000000   
    182. D(H  28,C   5,C   4,H  19)      0.0332         0.000000   
    183. D(C   0,C   5,C   4,H  19)    179.9528         0.000000   
    184. D(H  28,C   5,C   4,C   3)    179.9465         0.000000   
    185. D(C   0,C   5,C   4,C   3)     -0.1338         0.000000   
    186. D(C   4,C   5,C   0,H  20)   -179.9632         0.000000   
    187. D(C   4,C   5,C   0,C   1)     -0.2897         0.000000   
    188. D(H  28,C   5,C   0,H  20)     -0.0431         0.000000   
    189. D(H  28,C   5,C   0,C   1)    179.6304         0.000000   
    190. D(C  35,C   6,C   1,C   2)     83.2313         0.000000   
    191. D(H  29,C   6,C   1,C   2)   -175.9605         0.000000   
    192. D(C  35,C   6,C   1,C   0)    -93.6258         0.000000   
    193. D(H  29,C   6,C   1,C   0)      7.1824         0.000000   
    194. D(C   7,C   6,C   1,C   2)    -21.0044         0.000000   
    195. D(C   7,C   6,C   1,C   0)    162.1385         0.000000   
    196. D(C   8,C   7,C   6,C   1)   -170.3069         0.000000   
    197. D(C   8,C   7,C   6,H  29)    -14.9575         0.000000   
    198. D(C  35,C   7,C   6,C   1)    109.2225         0.000000   
    199. D(C  35,C   7,C   6,H  29)    -95.4281         0.000000   
    200. D(C  34,C   7,C   6,C  35)      3.8127         0.000000   
    201. D(C  34,C   7,C   6,H  29)    -91.6154         0.000000   
    202. D(C  34,C   7,C   6,C   1)    113.0352         0.000000   
    203. D(N  11,C   7,C   6,C  35)    -93.3269         0.000000   
    204. D(C   8,C   7,C   6,C  35)     80.4706         0.000000   
    205. D(N  11,C   7,C   6,C   1)     15.8956         0.000000   
    206. D(N  11,C   7,C   6,H  29)    171.2450         0.000000   
    207. D(O  18,C   8,C   7,C  35)     62.2263         0.000000   
    208. D(O  18,C   8,C   7,C  34)     84.4684         0.000000   
    209. D(O  18,C   8,C   7,N  11)   -178.9090         0.000000   
    210. D(O  18,C   8,C   7,C   6)      6.5901         0.000000   
    211. D(S   9,C   8,C   7,C  35)   -120.0855         0.000000   
    212. D(S   9,C   8,C   7,C  34)    -97.8434         0.000000   
    213. D(S   9,C   8,C   7,N  11)     -1.2207         0.000000   
    214. D(S   9,C   8,C   7,C   6)   -175.7217         0.000000   
    215. D(C  10,S   9,C   8,C   7)      2.1121         0.000000   
    216. D(C  10,S   9,C   8,O  18)    179.7002         0.000000   
    217. D(C  12,C  10,S   9,C   8)    176.5520         0.000000   
    218. D(N  11,C  10,S   9,C   8)     -2.7729         0.000000   
    219. D(C  10,N  11,C   7,C   8)     -0.8605         0.000000   
    220. D(C   7,N  11,C  10,S   9)      2.6090         0.000000   
    221. D(C  10,N  11,C   7,C  35)    111.0131         0.000000   
    222. D(C   7,N  11,C  10,C  12)   -176.7089         0.000000   
    223. D(C  10,N  11,C   7,C  34)     84.1320         0.000000   
    224. D(C  10,N  11,C   7,C   6)    173.3214         0.000000   
    225. D(C  13,C  12,C  10,S   9)    174.6469         0.000000   
    226. D(C  17,C  12,C  10,S   9)     -7.2610         0.000000   
    227. D(C  17,C  12,C  10,N  11)    172.0092         0.000000   
    228. D(C  13,C  12,C  10,N  11)     -6.0829         0.000000   
    229. D(H  25,C  13,C  12,C  17)   -179.6925         0.000000   
    230. D(H  25,C  13,C  12,C  10)     -1.5567         0.000000   
    231. D(C  14,C  13,C  12,C  17)      0.3262         0.000000   
    232. D(C  14,C  13,C  12,C  10)    178.4619         0.000000   
    233. D(H  24,C  14,C  13,H  25)     -0.1611         0.000000   
    234. D(H  24,C  14,C  13,C  12)    179.8200         0.000000   
    235. D(C  15,C  14,C  13,C  12)     -0.3141         0.000000   
    236. D(C  15,C  14,C  13,H  25)    179.7047         0.000000   
    237. D(H  23,C  15,C  14,H  24)      0.0316         0.000000   
    238. D(H  23,C  15,C  14,C  13)   -179.8337         0.000000   
    239. D(C  16,C  15,C  14,H  24)   -179.9929         0.000000   
    240. D(C  16,C  15,C  14,C  13)      0.1418         0.000000   
    241. D(H  22,C  16,C  15,H  23)      0.2544         0.000000   
    242. D(H  22,C  16,C  15,C  14)   -179.7211         0.000000   
    243. D(C  17,C  16,C  15,H  23)    179.9933         0.000000   
    244. D(C  17,C  16,C  15,C  14)      0.0178         0.000000   
    245. D(H  21,C  17,C  16,C  15)   -179.1261         0.000000   
    246. D(C  12,C  17,C  16,H  22)    179.7370         0.000000   
    247. D(C  12,C  17,C  16,C  15)     -0.0034         0.000000   
    248. D(H  21,C  17,C  12,C  13)    178.9388         0.000000   
    249. D(H  21,C  17,C  12,C  10)      0.8568         0.000000   
    250. D(C  16,C  17,C  12,C  13)     -0.1673         0.000000   
    251. D(H  21,C  17,C  16,H  22)      0.6143         0.000000   
    252. D(C  16,C  17,C  12,C  10)   -178.2493         0.000000   
    253. D(B  30,O  18,C   8,S   9)     12.2900         0.000000   
    254. D(B  30,O  18,C   8,C   7)   -170.4176         0.000000   
    255. D(F  33,B  30,O  18,C   8)     65.6126         0.000000   
    256. D(F  32,B  30,O  18,C   8)    -54.2772         0.000000   
    257. D(F  31,B  30,O  18,C   8)   -174.5931         0.000000   
    258. D(C  39,C  34,C   7,N  11)     -8.0194         0.000000   
    259. D(C  39,C  34,C   7,C   8)    104.6103         0.000000   
    260. D(C  39,C  34,C   7,C   6)   -133.1557         0.000000   
    261. D(H  38,C  34,C   7,C  35)    115.4337         0.000000   
    262. D(H  38,C  34,C   7,N  11)   -126.0090         0.000000   
    263. D(H  38,C  34,C   7,C   8)    -13.3793         0.000000   
    264. D(H  38,C  34,C   7,C   6)    108.8547         0.000000   
    265. D(C  35,C  34,C   7,N  11)    118.5573         0.000000   
    266. D(C  35,C  34,C   7,C   8)   -128.8130         0.000000   
    267. D(C  39,C  34,C   7,C  35)   -126.5767         0.000000   
    268. D(C  35,C  34,C   7,C   6)     -6.5790         0.000000   
    269. D(C   6,C  35,C   7,C   8)   -120.5581         0.000000   
    270. D(H  37,C  35,C   7,C  34)    119.9253         0.000000   
    271. D(H  37,C  35,C   7,N  11)     51.1524         0.000000   
    272. D(H  37,C  35,C   7,C   6)    -68.0154         0.000000   
    273. D(H  36,C  35,C   7,C  34)   -116.8274         0.000000   
    274. D(H  36,C  35,C   7,N  11)    174.3998         0.000000   
    275. D(H  36,C  35,C   7,C   6)     55.2319         0.000000   
    276. D(C  34,C  35,C   7,N  11)    -68.7728         0.000000   
    277. D(C  34,C  35,C   7,C   8)     51.5012         0.000000   
    278. D(C  34,C  35,C   7,C   6)    172.0593         0.000000   
    279. D(C   7,C  35,C   6,H  29)    113.8080         0.000000   
    280. D(C   7,C  35,C   6,C   1)   -128.9945         0.000000   
    281. D(H  37,C  35,C   6,H  29)   -131.5962         0.000000   
    282. D(H  37,C  35,C   6,C   7)    114.5958         0.000000   
    283. D(H  36,C  35,C   7,C   8)    -65.3262         0.000000   
    284. D(H  37,C  35,C   6,C   1)    -14.3988         0.000000   
    285. D(H  36,C  35,C   6,H  29)    -15.4655         0.000000   
    286. D(H  36,C  35,C   6,C   7)   -129.2735         0.000000   
    287. D(H  37,C  35,C   7,C   8)    171.4265         0.000000   
    288. D(H  36,C  35,C   6,C   1)    101.7320         0.000000   
    289. D(C  34,C  35,C   6,H  29)    105.4460         0.000000   
    290. D(C  34,C  35,C   6,C   7)     -8.3621         0.000000   
    291. D(C   6,C  35,C   7,N  11)    119.1678         0.000000   
    292. D(C  34,C  35,C   6,C   1)   -137.3566         0.000000   
    293. D(C   7,C  35,C  34,H  38)    -94.8232         0.000000   
    294. D(C   6,C  35,C  34,C   7)      4.4183         0.000000   
    295. D(C   6,C  35,C  34,C  39)     86.5801         0.000000   
    296. D(C   6,C  35,C  34,H  38)    -90.4049         0.000000   
    297. D(H  37,C  35,C  34,C   7)    -97.1735         0.000000   
    298. D(H  37,C  35,C  34,C  39)    -15.0117         0.000000   
    299. D(H  37,C  35,C  34,H  38)    168.0033         0.000000   
    300. D(H  36,C  35,C  34,C   7)    106.7604         0.000000   
    301. D(H  36,C  35,C  34,C  39)   -171.0778         0.000000   
    302. D(H  36,C  35,C  34,H  38)     11.9372         0.000000   
    303. D(C   7,C  35,C  34,C  39)     82.1618         0.000000   
    304. D(C   6,C  35,C   7,C  34)   -172.0593         0.000000   
    305. D(C  41,C  39,C  34,C   7)     72.8340         0.000000   
    306. D(C  41,C  39,C  34,H  38)    179.2064         0.000000   
    307. D(C  41,C  39,C  34,C  35)      2.1753         0.000000   
    308. D(C  40,C  39,C  34,C   7)   -104.8799         0.000000   
    309. D(C  40,C  39,C  34,H  38)      1.4926         0.000000   
    310. D(C  40,C  39,C  34,C  35)   -175.5385         0.000000   
    311. D(H  43,C  40,C  39,C  41)   -179.8032         0.000000   
    312. D(H  43,C  40,C  39,C  34)     -1.9708         0.000000   
    313. D(C  42,C  40,C  39,C  41)     -0.5362         0.000000   
    314. D(C  42,C  40,C  39,C  34)    177.2962         0.000000   
    315. D(H  45,C  41,C  39,C  40)    179.5069         0.000000   
    316. D(H  45,C  41,C  39,C  34)      1.7851         0.000000   
    317. D(C  44,C  41,C  39,C  40)      0.3710         0.000000   
    318. D(C  44,C  41,C  39,C  34)   -177.3507         0.000000   
    319. D(H  47,C  42,C  40,H  43)     -0.0126         0.000000   
    320. D(H  47,C  42,C  40,C  39)   -179.2716         0.000000   
    321. D(C  46,C  42,C  40,H  43)    179.3964         0.000000   
    322. D(C  46,C  42,C  40,C  39)      0.1374         0.000000   
    323. D(H  48,C  44,C  41,H  45)      0.2740         0.000000   
    324. D(H  48,C  44,C  41,C  39)    179.4197         0.000000   
    325. D(C  46,C  44,C  41,H  45)   -178.9546         0.000000   
    326. D(C  46,C  44,C  41,C  39)      0.1910         0.000000   
    327. D(H  49,C  46,C  44,H  48)     -0.1565         0.000000   
    328. D(H  49,C  46,C  44,C  41)    179.0704         0.000000   
    329. D(C  42,C  46,C  44,H  48)   -179.8277         0.000000   
    330. D(C  42,C  46,C  44,C  41)     -0.6008         0.000000   
    331. D(H  49,C  46,C  42,H  47)      0.1725         0.000000   
    332. D(H  49,C  46,C  42,C  40)   -179.2350         0.000000   
    333. D(C  44,C  46,C  42,H  47)    179.8435         0.000000   
    334. D(C  44,C  46,C  42,C  40)      0.4360         0.000000   
    -----------------------------------------------------------------

Number of atoms                         .... 50
Number of degrees of freedom            .... 334

         *************************************************************
         *                GEOMETRY OPTIMIZATION CYCLE   1            *
         *************************************************************
---------------------------------
CARTESIAN COORDINATES (ANGSTROEM)
---------------------------------
  C     -4.316814    1.763308   -0.373870
  C     -2.916097    1.604097   -0.401099
  C     -2.117961    2.764241   -0.471684
  C     -2.705833    4.023456   -0.530520
  C     -4.094433    4.163304   -0.511435
  C     -4.897704    3.024383   -0.431246
  C     -2.391876    0.252364   -0.288169
  C     -1.072058   -0.190709   -0.640343
  C     -0.752493   -1.596673   -0.671479
  S      0.939674   -1.817176   -1.010769
  C      1.112427   -0.064818   -1.022039
  N     -0.009624    0.605470   -0.849132
  C      2.400599    0.581493   -1.194179
  C      2.447981    1.982510   -1.306703
  C      3.668731    2.628577   -1.439953
  C      4.854152    1.891233   -1.456216
  C      4.815670    0.500921   -1.341455
  C      3.597863   -0.153077   -1.211114
  O     -1.627348   -2.517993   -0.515174
  H     -4.545838    5.149660   -0.557148
  H     -4.948169    0.880722   -0.312147
  H      3.589485   -1.234505   -1.108652
  H      5.735852   -0.073826   -1.349300
  H      5.807855    2.399658   -1.557878
  H      3.698273    3.709667   -1.529282
  H      1.523823    2.549188   -1.288509
  H     -1.038964    2.671583   -0.482704
  H     -2.073213    4.904472   -0.588631
  H     -5.979290    3.119662   -0.414729
  H     -3.135354   -0.538632   -0.313576
  B     -1.309873   -3.999839   -0.333500
  F     -2.536193   -4.641549   -0.326574
  F     -0.505488   -4.411059   -1.397710
  F     -0.636477   -4.144166    0.880584
  C     -0.791192   -0.609046    2.166276
  C     -2.005376    0.022097    1.939108
  H     -2.917539   -0.555170    2.043743
  H     -2.105840    1.096772    2.042448
  H     -0.790421   -1.693988    2.244386
  C      0.499892    0.034183    2.251096
  C      1.648312   -0.775001    2.393328
  C      0.677615    1.432612    2.152073
  C      2.918217   -0.215033    2.423848
  H      1.526780   -1.852371    2.467378
  C      1.948361    1.986938    2.186524
  H     -0.180596    2.085989    2.033807
  C      3.074162    1.168269    2.315972
  H      3.789175   -0.855547    2.522018
  H      2.068168    3.062422    2.099732
  H      4.067101    1.607102    2.327145

----------------------------
CARTESIAN COORDINATES (A.U.)
----------------------------
  NO LB      ZA    FRAG     MASS         X           Y           Z
   0 C     6.0000    0    12.011   -8.157596    3.332169   -0.706512
   1 C     6.0000    0    12.011   -5.510625    3.031304   -0.757967
   2 C     6.0000    0    12.011   -4.002366    5.223658   -0.891354
   3 C     6.0000    0    12.011   -5.113283    7.603230   -1.002538
   4 C     6.0000    0    12.011   -7.737357    7.867504   -0.966472
   5 C     6.0000    0    12.011   -9.255319    5.715256   -0.814937
   6 C     6.0000    0    12.011   -4.519991    0.476899   -0.544560
   7 C     6.0000    0    12.011   -2.025896   -0.360388   -1.210073
   8 C     6.0000    0    12.011   -1.422006   -3.017275   -1.268911
   9 S    16.0000    0    32.060    1.775727   -3.433965   -1.910077
  10 C     6.0000    0    12.011    2.102182   -0.122488   -1.931374
  11 N     7.0000    0    14.007   -0.018187    1.144172   -1.604627
  12 C     6.0000    0    12.011    4.536475    1.098863   -2.256671
  13 C     6.0000    0    12.011    4.626014    3.746401   -2.469311
  14 C     6.0000    0    12.011    6.932897    4.967291   -2.721117
  15 C     6.0000    0    12.011    9.173018    3.573912   -2.751849
  16 C     6.0000    0    12.011    9.100297    0.946604   -2.534983
  17 C     6.0000    0    12.011    6.798976   -0.289274   -2.288674
  18 O     8.0000    0    15.999   -3.075242   -4.758317   -0.973538
  19 H     1.0000    0     1.008   -8.590389    9.731447   -1.052857
  20 H     1.0000    0     1.008   -9.350684    1.664323   -0.589872
  21 H     1.0000    0     1.008    6.783144   -2.332876   -2.095049
  22 H     1.0000    0     1.008   10.839189   -0.139511   -2.549807
  23 H     1.0000    0     1.008   10.975255    4.534696   -2.943963
  24 H     1.0000    0     1.008    6.988723    7.010255   -2.889924
  25 H     1.0000    0     1.008    2.879608    4.817267   -2.434929
  26 H     1.0000    0     1.008   -1.963357    5.048560   -0.912178
  27 H     1.0000    0     1.008   -3.917805    9.268109   -1.112351
  28 H     1.0000    0     1.008  -11.299221    5.895307   -0.783724
  29 H     1.0000    0     1.008   -5.924960   -1.017867   -0.592573
  30 B     5.0000    0    10.810   -2.475301   -7.558600   -0.630224
  31 F     9.0000    0    18.998   -4.792710   -8.771256   -0.617135
  32 F     9.0000    0    18.998   -0.955234   -8.335693   -2.641289
  33 F     9.0000    0    18.998   -1.202767   -7.831339    1.664063
  34 C     6.0000    0    12.011   -1.495136   -1.150930    4.093668
  35 C     6.0000    0    12.011   -3.789611    0.041757    3.664383
  36 H     1.0000    0     1.008   -5.513350   -1.049119    3.862115
  37 H     1.0000    0     1.008   -3.979461    2.072599    3.859667
  38 H     1.0000    0     1.008   -1.493679   -3.201173    4.241275
  39 C     6.0000    0    12.011    0.944659    0.064597    4.253955
  40 C     6.0000    0    12.011    3.114858   -1.464540    4.522734
  41 C     6.0000    0    12.011    1.280507    2.707244    4.066829
  42 C     6.0000    0    12.011    5.514631   -0.406353    4.580409
  43 H     1.0000    0     1.008    2.885196   -3.500474    4.662669
  44 C     6.0000    0    12.011    3.681869    3.754769    4.131932
  45 H     1.0000    0     1.008   -0.341277    3.941948    3.843338
  46 C     6.0000    0    12.011    5.809324    2.207708    4.376553
  47 H     1.0000    0     1.008    7.160503   -1.616750    4.765923
  48 H     1.0000    0     1.008    3.908271    5.787139    3.967918
  49 H     1.0000    0     1.008    7.685707    3.036983    4.397667

--------------------------------
INTERNAL COORDINATES (ANGSTROEM)
--------------------------------
 C      0   0   0     0.000000000000     0.00000000     0.00000000
 C      1   0   0     1.409999175550     0.00000000     0.00000000
 C      2   1   0     1.409942345437   118.06070488     0.00000000
 C      3   2   1     1.390926877843   120.51610140   359.15144887
 C      4   3   2     1.395754871146   120.70447734     0.45015714
 C      1   2   3     1.389616980718   121.12743027     0.77238439
 C      2   1   3     1.454215577220   117.48840624   177.06075887
 C      7   2   1     1.436057019317   126.80201679   162.13852563
 C      8   7   2     1.442160188404   120.64631053   189.69311047
 S      9   8   7     1.739875982074   110.07658045   184.27832914
 C     10   9   8     1.760888744945    88.31197093     2.11208826
 N     11  10   9     1.318401031627   114.93644753   357.22711051
 C     11  10   9     1.451460364566   122.06992591   176.55201101
 C     13  11  10     1.406326896134   118.88106370   174.64690794
 C     14  13  11     1.387583760891   120.07760423   178.46191684
 C     15  14  13     1.396124495432   120.14614827   359.68586030
 C     16  15  14     1.395570997402   120.11752518     0.14178757
 C     17  16  15     1.388436548616   120.07692515     0.00000000
 O      9   8   7     1.280091038345   123.20180051     6.59009148
 H      5   4   3     1.085704522939   120.27104557   179.96647214
 H      1   2   3     1.086911639532   119.10780110   180.44797931
 H     18  17  16     1.086303443570   118.98214717   180.87386664
 H     17  16  15     1.084956483532   120.24937359   180.27891448
 H     16  15  14     1.085532383247   119.97990344   180.16631295
 H     15  14  13     1.085176477862   119.71641282   179.81999861
 H     14  13  11     1.084215378181   119.38183353   358.44327078
 H      3   2   1     1.083024224740   119.60938615   179.31476745
 H      4   3   2     1.086174085944   119.36762443   180.25291443
 H      6   1   2     1.085900167845   119.69339634   179.63037054
 H      7   2   1     1.085854375204   115.37117809     7.18244095
 B     19   9   8     1.526323486557   124.82955007   189.58244723
 F     31  19   9     1.384088304978   105.45184640   185.40692662
 F     31  19   9     1.395951303135   108.36748573   305.72283023
 F     31  19   9     1.395812456887   107.71393480    65.61259945
 C      8   7   2     2.851491147923    83.93895946   113.03519684
 C     35   8   7     1.387151604018    71.69014569   353.42097099
 H     36  35   8     1.084539999762   118.56841251   106.76038747
 H     36  35   8     1.084296327819   121.09424537   262.82648836
 H     35   8   7     1.087750389522   102.53746391   108.85471609
 C     35   8   7     1.444934556960    94.61612012   226.84428099
 C     40  35   8     1.412047160714   118.52319043   255.12011366
 C     40  35   8     1.413150624420   123.28358480    72.83395161
 C     41  40  35     1.388219845863   121.00047790   177.29617073
 H     41  40  35     1.086728828376   118.94907033   358.02916885
 C     42  40  35     1.386816347680   120.60018752   182.64926342
 H     42  40  35     1.085087310499   120.26754911     1.78512456
 C     43  41  40     1.396237980290   120.00700356     0.13742939
 H     43  41  40     1.085570527815   119.86213406   180.72837076
 H     45  42  40     1.085611534007   119.67757953   179.41966982
 H     47  43  41     1.085645934704   120.12084635   180.76499315

---------------------------
INTERNAL COORDINATES (A.U.)
---------------------------
 C      0   0   0     0.000000000000     0.00000000     0.00000000
 C      1   0   0     2.664512290844     0.00000000     0.00000000
 C      2   1   0     2.664404897495   118.06070488     0.00000000
 C      3   2   1     2.628470871433   120.51610140   359.15144887
 C      4   3   2     2.637594456553   120.70447734     0.45015714
 C      1   2   3     2.625995524604   121.12743027     0.77238439
 C      2   1   3     2.748069180628   117.48840624   177.06075887
 C      7   2   1     2.713754479204   126.80201679   162.13852563
 C      8   7   2     2.725287797328   120.64631053   189.69311047
 S      9   8   7     3.287889113107   110.07658045   184.27832914
 C     10   9   8     3.327597480250    88.31197093     2.11208826
 N     11  10   9     2.491416884453   114.93644753   357.22711051
 C     11  10   9     2.742862583271   122.06992591   176.55201101
 C     13  11  10     2.657572688460   118.88106370   174.64690794
 C     14  13  11     2.622153295961   120.07760423   178.46191684
 C     15  14  13     2.638292945226   120.14614827   359.68586030
 C     16  15  14     2.637246985533   120.11752518     0.14178757
 C     17  16  15     2.623764831212   120.07692515     0.00000000
 O      9   8   7     2.419021488958   123.20180051     6.59009148
 H      5   4   3     2.051684210714   120.27104557   179.96647214
 H      1   2   3     2.053965330487   119.10780110   180.44797931
 H     18  17  16     2.052816006683   118.98214717   180.87386664
 H     17  16  15     2.050270621098   120.24937359   180.27891448
 H     16  15  14     2.051358913840   119.97990344   180.16631295
 H     15  14  13     2.050686350132   119.71641282   179.81999861
 H     14  13  11     2.048870134948   119.38183353   358.44327078
 H      3   2   1     2.046619181160   119.60938615   179.31476745
 H      4   3   2     2.052571556197   119.36762443   180.25291443
 H      6   1   2     2.052053926006   119.69339634   179.63037054
 H      7   2   1     2.051967390455   115.37117809     7.18244095
 B     19   9   8     2.884333381365   124.82955007   189.58244723
 F     31  19   9     2.615547841571   105.45184640   185.40692662
 F     31  19   9     2.637965659216   108.36748573   305.72283023
 F     31  19   9     2.637703277832   107.71393480    65.61259945
 C      8   7   2     5.388537342876    83.93895946   113.03519684
 C     35   8   7     2.621336637823    71.69014569   353.42097099
 H     36  35   8     2.049483580833   118.56841251   106.76038747
 H     36  35   8     2.049023107594   121.09424537   262.82648836
 H     35   8   7     2.055550338263   102.53746391   108.85471609
 C     35   8   7     2.730530594093    94.61612012   226.84428099
 C     40  35   8     2.668382421930   118.52319043   255.12011366
 C     40  35   8     2.670467666134   123.28358480    72.83395161
 C     41  40  35     2.623355322356   121.00047790   177.29617073
 H     41  40  35     2.053619867468   118.94907033   358.02916885
 C     42  40  35     2.620703095160   120.60018752   182.64926342
 H     42  40  35     2.050517848236   120.26754911     1.78512456
 C     43  41  40     2.638507400528   120.00700356     0.13742939
 H     43  41  40     2.051430996626   119.86213406   180.72837076
 H     45  42  40     2.051508487099   119.67757953   179.41966982
 H     47  43  41     2.051573494995   120.12084635   180.76499315

---------------------
BASIS SET INFORMATION
---------------------
There are 7 groups of distinct atoms

 Group   1 Type C   : 10s4p1d contracted to 3s2p1d pattern {631/31/1}
 Group   2 Type S   : 16s10p1d contracted to 4s3p1d pattern {6631/631/1}
 Group   3 Type N   : 10s4p1d contracted to 3s2p1d pattern {631/31/1}
 Group   4 Type O   : 10s4p1d contracted to 3s2p1d pattern {631/31/1}
 Group   5 Type H   : 4s1p contracted to 2s1p pattern {31/1}
 Group   6 Type B   : 10s4p1d contracted to 3s2p1d pattern {631/31/1}
 Group   7 Type F   : 10s4p1d contracted to 3s2p1d pattern {631/31/1}

Atom   0C    basis set group =>   1
Atom   1C    basis set group =>   1
Atom   2C    basis set group =>   1
Atom   3C    basis set group =>   1
Atom   4C    basis set group =>   1
Atom   5C    basis set group =>   1
Atom   6C    basis set group =>   1
Atom   7C    basis set group =>   1
Atom   8C    basis set group =>   1
Atom   9S    basis set group =>   2
Atom  10C    basis set group =>   1
Atom  11N    basis set group =>   3
Atom  12C    basis set group =>   1
Atom  13C    basis set group =>   1
Atom  14C    basis set group =>   1
Atom  15C    basis set group =>   1
Atom  16C    basis set group =>   1
Atom  17C    basis set group =>   1
Atom  18O    basis set group =>   4
Atom  19H    basis set group =>   5
Atom  20H    basis set group =>   5
Atom  21H    basis set group =>   5
Atom  22H    basis set group =>   5
Atom  23H    basis set group =>   5
Atom  24H    basis set group =>   5
Atom  25H    basis set group =>   5
Atom  26H    basis set group =>   5
Atom  27H    basis set group =>   5
Atom  28H    basis set group =>   5
Atom  29H    basis set group =>   5
Atom  30B    basis set group =>   6
Atom  31F    basis set group =>   7
Atom  32F    basis set group =>   7
Atom  33F    basis set group =>   7
Atom  34C    basis set group =>   1
Atom  35C    basis set group =>   1
Atom  36H    basis set group =>   5
Atom  37H    basis set group =>   5
Atom  38H    basis set group =>   5
Atom  39C    basis set group =>   1
Atom  40C    basis set group =>   1
Atom  41C    basis set group =>   1
Atom  42C    basis set group =>   1
Atom  43H    basis set group =>   5
Atom  44C    basis set group =>   1
Atom  45H    basis set group =>   5
Atom  46C    basis set group =>   1
Atom  47H    basis set group =>   5
Atom  48H    basis set group =>   5
Atom  49H    basis set group =>   5
---------------------------------
AUXILIARY/J BASIS SET INFORMATION
---------------------------------
There are 7 groups of distinct atoms

 Group   1 Type C   : 12s5p4d2f1g contracted to 6s4p3d1f1g pattern {711111/2111/211/2/1}
 Group   2 Type S   : 14s5p5d2f1g contracted to 8s4p3d1f1g pattern {71111111/2111/311/2/1}
 Group   3 Type N   : 12s5p4d2f1g contracted to 6s4p3d1f1g pattern {711111/2111/211/2/1}
 Group   4 Type O   : 12s5p4d2f1g contracted to 6s4p3d1f1g pattern {711111/2111/211/2/1}
 Group   5 Type H   : 5s2p1d contracted to 3s1p1d pattern {311/2/1}
 Group   6 Type B   : 12s5p4d2f1g contracted to 6s4p3d1f1g pattern {711111/2111/211/2/1}
 Group   7 Type F   : 12s5p4d2f1g contracted to 6s4p3d1f1g pattern {711111/2111/211/2/1}

Atom   0C    basis set group =>   1
Atom   1C    basis set group =>   1
Atom   2C    basis set group =>   1
Atom   3C    basis set group =>   1
Atom   4C    basis set group =>   1
Atom   5C    basis set group =>   1
Atom   6C    basis set group =>   1
Atom   7C    basis set group =>   1
Atom   8C    basis set group =>   1
Atom   9S    basis set group =>   2
Atom  10C    basis set group =>   1
Atom  11N    basis set group =>   3
Atom  12C    basis set group =>   1
Atom  13C    basis set group =>   1
Atom  14C    basis set group =>   1
Atom  15C    basis set group =>   1
Atom  16C    basis set group =>   1
Atom  17C    basis set group =>   1
Atom  18O    basis set group =>   4
Atom  19H    basis set group =>   5
Atom  20H    basis set group =>   5
Atom  21H    basis set group =>   5
Atom  22H    basis set group =>   5
Atom  23H    basis set group =>   5
Atom  24H    basis set group =>   5
Atom  25H    basis set group =>   5
Atom  26H    basis set group =>   5
Atom  27H    basis set group =>   5
Atom  28H    basis set group =>   5
Atom  29H    basis set group =>   5
Atom  30B    basis set group =>   6
Atom  31F    basis set group =>   7
Atom  32F    basis set group =>   7
Atom  33F    basis set group =>   7
Atom  34C    basis set group =>   1
Atom  35C    basis set group =>   1
Atom  36H    basis set group =>   5
Atom  37H    basis set group =>   5
Atom  38H    basis set group =>   5
Atom  39C    basis set group =>   1
Atom  40C    basis set group =>   1
Atom  41C    basis set group =>   1
Atom  42C    basis set group =>   1
Atom  43H    basis set group =>   5
Atom  44C    basis set group =>   1
Atom  45H    basis set group =>   5
Atom  46C    basis set group =>   1
Atom  47H    basis set group =>   5
Atom  48H    basis set group =>   5
Atom  49H    basis set group =>   5


           ************************************************************
           *        Program running with 12 parallel MPI-processes    *
           *              working on a common directory               *
           ************************************************************
------------------------------------------------------------------------------
                           ORCA GTO INTEGRAL CALCULATION
                           -- RI-GTO INTEGRALS CHOSEN --
------------------------------------------------------------------------------
------------------------------------------------------------------------------
                   ___                                                        
                  /   \      - P O W E R E D   B Y -                         
                 /     \                                                     
                 |  |  |   _    _      __       _____    __    __             
                 |  |  |  | |  | |    /  \     |  _  \  |  |  /  |          
                  \  \/   | |  | |   /    \    | | | |  |  | /  /          
                 / \  \   | |__| |  /  /\  \   | |_| |  |  |/  /          
                |  |  |   |  __  | /  /__\  \  |    /   |      \           
                |  |  |   | |  | | |   __   |  |    \   |  |\   \          
                \     /   | |  | | |  |  |  |  | |\  \  |  | \   \       
                 \___/    |_|  |_| |__|  |__|  |_| \__\ |__|  \__/        
                                                                              
                      - O R C A' S   B I G   F R I E N D -                    
                                      &                                       
                       - I N T E G R A L  F E E D E R -                       
                                                                              
 v1 FN, 2020, v2 2021                                                         
------------------------------------------------------------------------------


Reading SHARK input file T1_TS-I-C_5_1.SHARKINP.tmp ... ok
----------------------
SHARK INTEGRAL PACKAGE
----------------------

Number of atoms                             ...     50
Number of basis functions                   ...    533
Number of shells                            ...    245
Maximum angular momentum                    ...      2
Integral batch strategy                     ... SHARK/LIBINT Hybrid
RI-J (if used) integral strategy            ... SPLIT-RIJ (Revised 2003 algorithm where possible)
Printlevel                                  ...      1
Contraction scheme used                     ... SEGMENTED contraction
Coulomb Range Separation                    ... NOT USED
Exchange Range Separation                   ... Long Range
   Mu parameter                             ...  0.250000
   Scaling (regular/separated)              ...  0.195728  0.804272
Finite Nucleus Model                        ... NOT USED
Auxiliary Coulomb fitting basis             ... AVAILABLE
   # of basis functions in Aux-J            ...   1730
   # of shells in Aux-J                     ...    562
   Maximum angular momentum in Aux-J        ...      4
Auxiliary J/K fitting basis                 ... NOT available
Auxiliary Correlation fitting basis         ... NOT available
Auxiliary 'external' fitting basis          ... NOT available
Integral threshold                          ...     2.500000e-11
Primitive cut-off                           ...     2.500000e-12
Primitive pair pre-selection threshold      ...     2.500000e-12

Calculating pre-screening integrals         ... done (  0.0 sec) Dimension = 245
Organizing shell pair data                  ... done (  0.2 sec)
Shell pair information
Total number of shell pairs                 ...     30135
Shell pairs after pre-screening             ...     19367
Total number of primitive shell pairs       ...    164616
Primitive shell pairs kept                  ...     56135
          la=0 lb=0:   5507 shell pairs
          la=1 lb=0:   7221 shell pairs
          la=1 lb=1:   2425 shell pairs
          la=2 lb=0:   2354 shell pairs
          la=2 lb=1:   1596 shell pairs
          la=2 lb=2:    264 shell pairs

Calculating one electron integrals          ... done (  0.0 sec)
Calculating RI/J V-Matrix + Cholesky decomp.... done (  0.2 sec)
Calculating Nuclear repulsion               ... done (  0.0 sec) ENN=   3256.227852418620 Eh

SHARK setup successfully completed in   0.7 seconds

Maximum memory used throughout the entire GTOINT-calculation: 35.9 MB


           ************************************************************
           *        Program running with 12 parallel MPI-processes    *
           *              working on a common directory               *
           ************************************************************
-------------------------------------------------------------------------------
                                 ORCA SCF
-------------------------------------------------------------------------------

------------
SCF SETTINGS
------------
Hamiltonian:
 Density Functional     Method          .... DFT(GTOs)
 Exchange Functional    Exchange        .... WB97X-D3
 Correlation Functional Correlation     .... WB97X-D3
 Gradients option       PostSCFGGA      .... off
 Hybrid DFT is turned on
   Fraction HF Exchange ScalHFX         ....  0.195728
   Scaling of DF-GGA-X  ScalDFX         ....  0.000000
   Scaling of DF-GGA-C  ScalDFC         ....  1.000000
   Scaling of DF-LDA-C  ScalLDAC        ....  1.000000
   Perturbative correction              ....  0.000000
   Density functional embedding theory  .... OFF
 Long-range corrected/Screened/Range-Separated Hybrid DFT is turned on
   Amount of maximum screened exact exchange              ....  0.804272
   Range separation parameter mu (erf(mu*r12)/r12)        ....  0.250000
 RI-approximation to the Coulomb term is turned on
   Number of AuxJ basis functions       .... 1730
   RIJ-COSX (HFX calculated with COS-X)).... on


General Settings:
 Integral files         IntName         .... T1_TS-I-C_5_1
 Hartree-Fock type      HFTyp           .... UHF
 Total Charge           Charge          ....    0
 Multiplicity           Mult            ....    3
 Number of Electrons    NEL             ....  226
 Basis Dimension        Dim             ....  533
 Nuclear Repulsion      ENuc            ....   3256.2278524186 Eh

Convergence Acceleration:
 DIIS                   CNVDIIS         .... on
   Start iteration      DIISMaxIt       ....    12
   Startup error        DIISStart       ....  0.200000
   # of expansion vecs  DIISMaxEq       ....     5
   Bias factor          DIISBfac        ....   1.050
   Max. coefficient     DIISMaxC        ....  10.000
 Trust-Rad. Augm. Hess. CNVTRAH         .... auto
   Auto Start mean grad. ratio tolernc. ....  1.125000
   Auto Start start iteration           ....    20
   Auto Start num. interpolation iter.  ....    10
   Max. Number of Micro iterations      ....    16
   Max. Number of Macro iterations      .... Maxiter - #DIIS iter
   Number of Davidson start vectors     ....     2
   Converg. threshold I  (grad. norm)   ....   1.000e-05
   Converg. threshold II (energy diff.) ....   1.000e-08
   Grad. Scal. Fac. for Micro threshold ....   0.100
   Minimum threshold for Micro iter.    ....   0.010
   NR start threshold (gradient norm)   ....   0.001
   Initial trust radius                 ....   0.400
   Minimum AH scaling param. (alpha)    ....   1.000
   Maximum AH scaling param. (alpha)    .... 1000.000
   Orbital update algorithm             .... Taylor
   White noise on init. David. guess    .... on
   Maximum white noise                  ....   0.010
   Quad. conv. algorithm                .... NR
 SOSCF                  CNVSOSCF        .... off
 Level Shifting         CNVShift        .... on
   Level shift para.    LevelShift      ....    0.2500
   Turn off err/grad.   ShiftErr        ....    0.0010
 Zerner damping         CNVZerner       .... off
 Static damping         CNVDamp         .... on
   Fraction old density DampFac         ....    0.7000
   Max. Damping (<1)    DampMax         ....    0.9800
   Min. Damping (>=0)   DampMin         ....    0.0000
   Turn off err/grad.   DampErr         ....    0.1000
 Fernandez-Rico         CNVRico         .... off

SCF Procedure:
 Maximum # iterations   MaxIter         ....   125
 SCF integral mode      SCFMode         .... Direct
   Integral package                     .... SHARK and LIBINT hybrid scheme
 Reset frequency        DirectResetFreq ....    20
 Integral Threshold     Thresh          ....  2.500e-11 Eh
 Primitive CutOff       TCut            ....  2.500e-12 Eh

Convergence Tolerance:
 Convergence Check Mode ConvCheckMode   .... Total+1el-Energy
 Convergence forced     ConvForced      .... 0
 Energy Change          TolE            ....  1.000e-08 Eh
 1-El. energy change                    ....  1.000e-05 Eh
 DIIS Error             TolErr          ....  5.000e-07


Diagonalization of the overlap matrix:
Smallest eigenvalue                        ... 4.321e-04
Time for diagonalization                   ...    0.089 sec
Threshold for overlap eigenvalues          ... 1.000e-08
Number of eigenvalues below threshold      ... 0
Time for construction of square roots      ...    0.085 sec
Total time needed                          ...    0.176 sec

Time for model grid setup =    0.384 sec

------------------------------
INITIAL GUESS: MODEL POTENTIAL
------------------------------
Loading Hartree-Fock densities                     ... done
Calculating cut-offs                               ... done
Initializing the effective Hamiltonian             ... done
Setting up the integral package (SHARK)            ... done
Starting the Coulomb interaction                   ... done (   0.3 sec)
Reading the grid                                   ... done
Mapping shells                                     ... done
Starting the XC term evaluation                    ... done (   0.1 sec)
  promolecular density results
     # of electrons  =    225.988248826
     EX              =   -201.733937915
     EC              =     -7.684951370
     EX+EC           =   -209.418889285
Transforming the Hamiltonian                       ... done (   0.1 sec)
Diagonalizing the Hamiltonian                      ... done (   0.1 sec)
Back transforming the eigenvectors                 ... done (   0.0 sec)
Now organizing SCF variables                       ... done
                      ------------------
                      INITIAL GUESS DONE (   1.0 sec)
                      ------------------
-------------------
DFT GRID GENERATION
-------------------

General Integration Accuracy     IntAcc      ... 4.959
Radial Grid Type                 RadialGrid  ... OptM3 with GC (2021)
Angular Grid (max. ang.)         AngularGrid ... 6 (Lebedev-590)
Angular grid pruning method      GridPruning ... 4 (adaptive)
Weight generation scheme         WeightScheme... Becke
Basis function cutoff            BFCut       ... 1.0000e-11
Integration weight cutoff        WCut        ... 1.0000e-14
Angular grids for H and He will be reduced by one unit
Partially contracted basis set               ... off
Rotationally invariant grid construction     ... off

Total number of grid points                  ...   598691
Total number of batches                      ...     9382
Average number of points per batch           ...       63
Average number of grid points per atom       ...    11974
Time for grid setup =    7.480 sec

--------------------
COSX GRID GENERATION
--------------------

GRIDX 1
-------
General Integration Accuracy     IntAcc      ... 4.020
Radial Grid Type                 RadialGrid  ... OptM3 with GC (2021)
Angular Grid (max. ang.)         AngularGrid ... 2 (Lebedev-110)
Angular grid pruning method      GridPruning ... 4 (adaptive)
Weight generation scheme         WeightScheme... Becke
Basis function cutoff            BFCut       ... 1.0000e-11
Integration weight cutoff        WCut        ... 1.0000e-14
Angular grids for H and He will be reduced by one unit
Partially contracted basis set               ... on
Rotationally invariant grid construction     ... off

Total number of grid points                  ...    67748
Total number of batches                      ...     1079
Average number of points per batch           ...       62
Average number of grid points per atom       ...     1355
UseSFitting                                  ... on

GRIDX 2
-------
General Integration Accuracy     IntAcc      ... 4.338
Radial Grid Type                 RadialGrid  ... OptM3 with GC (2021)
Angular Grid (max. ang.)         AngularGrid ... 3 (Lebedev-194)
Angular grid pruning method      GridPruning ... 4 (adaptive)
Weight generation scheme         WeightScheme... Becke
Basis function cutoff            BFCut       ... 1.0000e-11
Integration weight cutoff        WCut        ... 1.0000e-14
Angular grids for H and He will be reduced by one unit
Partially contracted basis set               ... on
Rotationally invariant grid construction     ... off

Total number of grid points                  ...   148433
Total number of batches                      ...     2346
Average number of points per batch           ...       63
Average number of grid points per atom       ...     2969
UseSFitting                                  ... on

GRIDX 3
-------
General Integration Accuracy     IntAcc      ... 4.871
Radial Grid Type                 RadialGrid  ... OptM3 with GC (2021)
Angular Grid (max. ang.)         AngularGrid ... 4 (Lebedev-302)
Angular grid pruning method      GridPruning ... 4 (adaptive)
Weight generation scheme         WeightScheme... Becke
Basis function cutoff            BFCut       ... 1.0000e-11
Integration weight cutoff        WCut        ... 1.0000e-14
Angular grids for H and He will be reduced by one unit
Partially contracted basis set               ... on
Rotationally invariant grid construction     ... off

Total number of grid points                  ...   273473
Total number of batches                      ...     4297
Average number of points per batch           ...       63
Average number of grid points per atom       ...     5469
UseSFitting                                  ... on

Time for X-Grid setup             =    3.996 sec


--------------------
CPCM SOLVATION MODEL
--------------------
CPCM parameters:
  Epsilon                                         ...       9.0800
  Refrac                                          ...       1.4240
  Rsolv                                           ...       1.3000
  Surface type                                    ... GAUSSIAN VDW
  Epsilon function type                           ...         CPCM
Radii:
 Radius for C  used is    3.8550 Bohr (=   2.0400 Ang.)
 Radius for S  used is    4.0818 Bohr (=   2.1600 Ang.)
 Radius for N  used is    3.5149 Bohr (=   1.8600 Ang.)
 Radius for O  used is    3.4469 Bohr (=   1.8240 Ang.)
 Radius for H  used is    2.4944 Bohr (=   1.3200 Ang.)
 Radius for B  used is    4.3539 Bohr (=   2.3040 Ang.)
 Radius for F  used is    3.3335 Bohr (=   1.7640 Ang.)
Calculating surface                               ...        done! (  0.0s)
GEPOL surface points                              ...         2602
GEPOL Volume                                      ...    3312.7204
GEPOL Surface-area                                ...    1543.7217
Calculating surface distance matrix               ...        done! (  0.1s)
Performing Cholesky decomposition & store         ...        done! (  0.4s)
Overall time for CPCM initialization              ...                 0.5s
--------------
SCF ITERATIONS
--------------
ITER       Energy         Delta-E        Max-DP      RMS-DP      [F,P]     Damp
               ***  Starting incremental Fock matrix formation  ***
  0  -1777.7120456343   0.000000000000 0.03033837  0.00044778  0.0881293 0.7000
  1  -1777.9277137346  -0.215668100344 0.02164370  0.00033209  0.0453510 0.7000
                               ***Turning on DIIS***
  2  -1778.0405354076  -0.112821673000 0.03903203  0.00067125  0.0203949 0.0000
  3  -1778.2333719506  -0.192836542999 0.02231037  0.00021545  0.0196411 0.0000
  4  -1778.2590461874  -0.025674236798 0.00589313  0.00006331  0.0042322 0.0000
  5  -1778.2609892601  -0.001943072708 0.00418210  0.00004013  0.0034538 0.0000
  6  -1778.2619134904  -0.000924230269 0.00427549  0.00003769  0.0021457 0.0000
  7  -1778.2625476906  -0.000634200174 0.00369225  0.00003051  0.0015634 0.0000
  8  -1778.2628963140  -0.000348623470 0.00300914  0.00003436  0.0008955 0.0000
               *** Restarting incremental Fock matrix formation ***
                                   *** Resetting DIIS ***
  9  -1778.2631246379  -0.000228323910 0.00108421  0.00001005  0.0005839 0.0000
 10  -1778.2631601972  -0.000035559266 0.00077015  0.00000489  0.0006938 0.0000
 11  -1778.2631757965  -0.000015599326 0.00172001  0.00001322  0.0003787 0.0000
 12  -1778.2632055539  -0.000029757385 0.00134435  0.00000907  0.0002293 0.0000
 13  -1778.2632151597  -0.000009605810 0.00044849  0.00000284  0.0001065 0.0000
 14  -1778.2632170192  -0.000001859494 0.00043032  0.00000255  0.0000700 0.0000
 15  -1778.2632181196  -0.000001100386 0.00025275  0.00000157  0.0000438 0.0000
 16  -1778.2632185440  -0.000000424441 0.00014829  0.00000111  0.0000232 0.0000
 17  -1778.2632187162  -0.000000172154 0.00008153  0.00000050  0.0000178 0.0000
 18  -1778.2632187495  -0.000000033324 0.00003205  0.00000028  0.0000139 0.0000
 19  -1778.2632187711  -0.000000021588 0.00003589  0.00000029  0.0000076 0.0000
 20  -1778.2632187624   0.000000008746 0.00001402  0.00000013  0.0000046 0.0000
 21  -1778.2632187572   0.000000005150 0.00001289  0.00000014  0.0000040 0.0000
 22  -1778.2632187436   0.000000013605 0.00001023  0.00000010  0.0000033 0.0000
 23  -1778.2632187470  -0.000000003385 0.00000806  0.00000007  0.0000023 0.0000
 24  -1778.2632187529  -0.000000005909 0.00000516  0.00000005  0.0000015 0.0000
                 **** Energy Check signals convergence ****

               *****************************************************
               *                     SUCCESS                       *
               *           SCF CONVERGED AFTER  25 CYCLES          *
               *****************************************************

Old exchange energy                            =    -64.471503092 Eh
New exchange energy                            =    -64.471496278 Eh
Exchange energy change after final integration =      0.000006814 Eh
Total energy after final integration           =  -1778.263211939 Eh
Final COS-X integration done in                =    39.452 sec

----------------
TOTAL SCF ENERGY
----------------

Total Energy       :        -1778.26321194 Eh          -48389.00205 eV

Components:
Nuclear Repulsion  :         3256.22785242 Eh           88606.46453 eV
Electronic Energy  :        -5034.49106436 Eh         -136995.46658 eV
One Electron Energy:        -8913.87222923 Eh         -242558.79481 eV
Two Electron Energy:         3879.38116487 Eh          105563.32823 eV
Max COSX asymmetry :            0.00000022 Eh               0.00001 eV
CPCM Dielectric    :           -0.02997328 Eh              -0.81561 eV

Virial components:
Potential Energy   :        -3546.86276938 Eh          -96515.04268 eV
Kinetic Energy     :         1768.59955744 Eh           48126.04064 eV
Virial Ratio       :            2.00546401


DFT components:
N(Alpha)           :      113.999997963239 electrons
N(Beta)            :      111.999996371927 electrons
N(Total)           :      225.999994335166 electrons
E(XC)              :     -149.432033534797 Eh       
DFET-embed. en.    :        0.000000000000 Eh       
CPCM Solvation Model Properties:
Surface-charge          :           -0.02177997
Charge-correction       :           -0.00003667 Eh              -0.00100 eV
Free-energy (cav+disp)  :  This term is not implemented in the current solvation scheme

---------------
SCF CONVERGENCE
---------------

  Last Energy change         ...    6.5211e-10  Tolerance :   1.0000e-08
  Last MAX-Density change    ...    0.0000e+00  Tolerance :   1.0000e-07
  Last RMS-Density change    ...    0.0000e+00  Tolerance :   5.0000e-09
  Last DIIS Error            ...    1.4575e-06  Tolerance :   5.0000e-07

             **** THE GBW FILE WAS UPDATED (T1_TS-I-C_5_1.gbw) ****
             **** DENSITY T1_TS-I-C_5_1.scfp WAS UPDATED ****
             **** ENERGY FILE WAS UPDATED (T1_TS-I-C_5_1.en.tmp) ****
----------------------
UHF SPIN CONTAMINATION
----------------------

Warning: in a DFT calculation there is little theoretical justification to 
         calculate <S**2> as in Hartree-Fock theory. We will do it anyways
         but you should keep in mind that the values have only limited relevance

Expectation value of <S**2>     :     2.071046
Ideal value S*(S+1) for S=1.0   :     2.000000
Deviation                       :     0.071046

             **** THE GBW FILE WAS UPDATED (T1_TS-I-C_5_1.gbw) ****
             **** DENSITY T1_TS-I-C_5_1.scfp WAS UPDATED ****
----------------
ORBITAL ENERGIES
----------------
                 SPIN UP ORBITALS
  NO   OCC          E(Eh)            E(eV) 
   0   1.0000     -89.013394     -2422.1776 
   1   1.0000     -24.746743      -673.3931 
   2   1.0000     -24.744381      -673.3288 
   3   1.0000     -24.741912      -673.2616 
   4   1.0000     -19.306933      -525.3684 
   5   1.0000     -14.469318      -393.7302 
   6   1.0000     -10.430165      -283.8192 
   7   1.0000     -10.402531      -283.0673 
   8   1.0000     -10.375267      -282.3254 
   9   1.0000     -10.326657      -281.0026 
  10   1.0000     -10.323501      -280.9167 
  11   1.0000     -10.323202      -280.9086 
  12   1.0000     -10.315566      -280.7008 
  13   1.0000     -10.315343      -280.6947 
  14   1.0000     -10.311667      -280.5947 
  15   1.0000     -10.311513      -280.5905 
  16   1.0000     -10.309861      -280.5456 
  17   1.0000     -10.308536      -280.5095 
  18   1.0000     -10.304413      -280.3973 
  19   1.0000     -10.303482      -280.3720 
  20   1.0000     -10.301685      -280.3231 
  21   1.0000     -10.301083      -280.3067 
  22   1.0000     -10.300922      -280.3023 
  23   1.0000     -10.296343      -280.1777 
  24   1.0000     -10.296179      -280.1733 
  25   1.0000     -10.294404      -280.1250 
  26   1.0000     -10.293073      -280.0888 
  27   1.0000     -10.291962      -280.0585 
  28   1.0000     -10.291832      -280.0550 
  29   1.0000     -10.291018      -280.0328 
  30   1.0000      -8.110340      -220.6936 
  31   1.0000      -6.951147      -189.1503 
  32   1.0000      -6.064205      -165.0154 
  33   1.0000      -6.060465      -164.9136 
  34   1.0000      -6.056412      -164.8034 
  35   1.0000      -1.293779       -35.2055 
  36   1.0000      -1.247101       -33.9353 
  37   1.0000      -1.245460       -33.8907 
  38   1.0000      -1.215765       -33.0827 
  39   1.0000      -1.122605       -30.5476 
  40   1.0000      -0.999751       -27.2046 
  41   1.0000      -0.989146       -26.9160 
  42   1.0000      -0.983287       -26.7566 
  43   1.0000      -0.947774       -25.7902 
  44   1.0000      -0.935166       -25.4472 
  45   1.0000      -0.920590       -25.0505 
  46   1.0000      -0.900105       -24.4931 
  47   1.0000      -0.879431       -23.9305 
  48   1.0000      -0.870322       -23.6827 
  49   1.0000      -0.864692       -23.5295 
  50   1.0000      -0.862336       -23.4654 
  51   1.0000      -0.850611       -23.1463 
  52   1.0000      -0.800820       -21.7914 
  53   1.0000      -0.769366       -20.9355 
  54   1.0000      -0.749189       -20.3865 
  55   1.0000      -0.738352       -20.0916 
[...]
     50      -0.000008   0.000014  -0.000856  -0.000153   0.000002   0.000003
     51      -0.000016   0.000101  -0.003326  -0.000396  -0.000017   0.000003
     52      -0.000155   0.000076  -0.020278  -0.004040  -0.000029  -0.000005
     53       0.000013  -0.000017   0.001559   0.000311  -0.000001   0.000001
     54       0.000022   0.000038   0.000025   0.000055  -0.000020  -0.000023
     55       0.000016   0.000090   0.000065   0.000036  -0.000000   0.000013
     56      -0.000001  -0.000011  -0.000008  -0.000014   0.000001   0.000014
     57       0.290645   0.005967  -0.000544   0.001989   0.018830  -0.000281
     58      -0.655417  -0.013471   0.001166  -0.004316  -0.040245   0.000609
     59       0.021298   0.000436  -0.000034   0.000138   0.001339  -0.000002
     60       0.113999   0.003863  -0.000072   0.000675   0.005994  -0.001160
     61       0.161045   0.005410  -0.000068   0.000905   0.007503  -0.001282
     62      -0.004594  -0.000159   0.000006  -0.000030  -0.000231   0.000059
     63       0.000050  -0.000011   0.005294   0.000542   0.000032   0.000004
     64       0.001585  -0.000864   0.214178   0.040034   0.000483   0.000021
     65      -0.000120   0.000103  -0.015294  -0.002855  -0.000020   0.000001
     66      -0.004921   0.008393  -0.627701  -0.131315   0.001461  -0.000057
     67       0.002978  -0.005215   0.385816   0.081386  -0.000916   0.000033
     68       0.000079  -0.000109   0.009851   0.001999  -0.000020   0.000003
     69       0.003332   0.009298  -0.445816  -0.172714   0.002474  -0.000033
     70       0.001745   0.005083  -0.245270  -0.092450   0.001307  -0.000018
     71      -0.000269  -0.000743   0.036588   0.014021  -0.000203   0.000009
     72       0.000189   0.000023  -0.000256  -0.010901   0.000406  -0.000007
     73       0.009054   0.004363  -0.168382  -0.408187   0.011964  -0.000098
     74      -0.000502  -0.000211   0.009127   0.022514  -0.000644   0.000011
     75      -0.000190  -0.000275  -0.288352   0.746349  -0.042740   0.000088
     76       0.000057   0.000191   0.174581  -0.447842   0.026236  -0.000059
     77       0.000028   0.000064   0.008419  -0.021952   0.000993   0.000010
     78       0.110670   0.005175   0.011836  -0.047983  -0.973201   0.002206
     79      -0.009146  -0.000434  -0.001031   0.004556   0.093516  -0.000222
     80       0.001564   0.000021   0.000087  -0.000452  -0.015155   0.000098
     81      -0.194283  -0.005183   0.001788  -0.006769  -0.100826   0.000340
     82      -0.259040  -0.006975   0.002515  -0.009503  -0.142528   0.000501
     83       0.005123   0.000133  -0.000049   0.000193   0.003170  -0.000006
     84       0.562880   0.014142  -0.000344   0.002950   0.027842  -0.000405
     85      -0.052900  -0.001368   0.000018  -0.000267  -0.002500   0.000072
     86       0.004817   0.000117  -0.000001   0.000029   0.000327   0.000017
     87       0.017729   0.005259  -0.000882  -0.000743   0.005334  -0.026251
     88       0.019366   0.005501  -0.001043  -0.000679   0.007560  -0.027471
     89       0.000762   0.000216  -0.000041  -0.000019  -0.000011  -0.000988
     90      -0.000000   0.000003   0.000008  -0.000012   0.000004   0.000021
     91      -0.000030  -0.000092  -0.000057  -0.000057  -0.000010  -0.000043
     92       0.000002  -0.000007   0.000006   0.000018   0.000002   0.000042
     93       0.000006   0.000006   0.000003   0.000004   0.000002  -0.000002
     94       0.000002   0.000011   0.000006   0.000007  -0.000003  -0.000002
     95       0.000001  -0.000002   0.000001   0.000001   0.000001  -0.000010
     96       0.000003  -0.000007  -0.000006   0.000001  -0.000002  -0.000002
     97       0.000002   0.000011   0.000006   0.000010  -0.000003   0.000001
     98       0.000001   0.000003   0.000002   0.000001   0.000002  -0.000009
     99       0.000003  -0.000010  -0.000003  -0.000003   0.000001  -0.000007
    100       0.000003   0.000004   0.000007   0.000005  -0.000002   0.000016
    101      -0.000000  -0.000004  -0.000005  -0.000005   0.000001  -0.000020
    102       0.000162  -0.000558   0.000084   0.000122   0.000119   0.000103
    103       0.000039  -0.000714  -0.000088  -0.000075  -0.000037   0.006400
    104       0.000008  -0.000056  -0.000003  -0.000004   0.000012  -0.000247
    105      -0.000183  -0.000724  -0.000133  -0.000136   0.000060   0.047200
    106       0.000341  -0.000386   0.000055   0.000070   0.000286   0.087871
    107      -0.000038   0.000191  -0.000006  -0.000023  -0.000107   0.001258
    108       0.000528   0.010372   0.000907   0.000767  -0.002013  -0.605824
    109       0.000362   0.005713   0.000525   0.000441  -0.001339  -0.356244
    110       0.000038  -0.000896  -0.000118  -0.000106   0.000280   0.053889
    111       0.000279  -0.000663   0.000028   0.000068   0.000316   0.047640
    112      -0.003577  -0.002954  -0.000813  -0.000750  -0.001115  -0.692371
    113      -0.000032  -0.000262  -0.000088  -0.000082  -0.000194  -0.066624
    114      -0.000095   0.001452   0.000003  -0.000031   0.000000   0.000984
    115      -0.000845   0.009395   0.000652   0.000458   0.000048  -0.071095
    116       0.000077  -0.000128   0.000018   0.000033   0.000069   0.003268
    117      -0.000037  -0.000595  -0.000043  -0.000036  -0.000043  -0.000462
    118      -0.000000  -0.000661  -0.000009  -0.000011  -0.000037   0.000075
    119      -0.000002   0.000015   0.000003   0.000003  -0.000007  -0.000077
    120       0.000103  -0.004181  -0.000076   0.000002   0.000005  -0.000013
    121       0.000227  -0.015928  -0.000332  -0.000094  -0.000043   0.000069
    122      -0.000002   0.000447   0.000005   0.000001  -0.000001  -0.000000
    123       0.000494  -0.024005  -0.000293  -0.000168  -0.000324  -0.001522
    124      -0.000292   0.015724   0.000211   0.000123   0.000264   0.001057
    125       0.000033  -0.002259  -0.000038  -0.000006   0.000008  -0.000146
    126      -0.000772   0.034463   0.000684   0.000113   0.000057   0.000063
    127       0.000627  -0.028125  -0.000539  -0.000120  -0.000054  -0.000039
    128      -0.000062   0.002735   0.000054   0.000007   0.000005   0.000004
    129      -0.000376   0.024321   0.000500   0.000116   0.000054  -0.000031
    130      -0.002559   0.170852   0.003506   0.000806   0.000320  -0.001249
    131       0.000087  -0.005445  -0.000113  -0.000013  -0.000009   0.000047
    132      -0.000107   0.004944   0.000019   0.000074   0.000009   0.000112
    133      -0.001044   0.047283   0.000434   0.000532   0.000031   0.000117
    134       0.000056  -0.002500  -0.000032  -0.000014  -0.000013  -0.000008
    135      -0.004919   0.249201   0.003041   0.001800   0.003410   0.019174
    136       0.003813  -0.190281  -0.002311  -0.001336  -0.002720  -0.013309
    137      -0.000406   0.025380   0.000336   0.000134   0.000187   0.001897
    138      -0.001396   0.050557   0.000663   0.000132   0.000034  -0.000076
    139      -0.000589   0.021243   0.000289   0.000063   0.000014  -0.000056
    140      -0.000014   0.000496  -0.000004  -0.000003  -0.000004   0.000000
    141       0.008591  -0.384498  -0.007629  -0.001338  -0.000680  -0.000518
    142      -0.006637   0.295464   0.005845   0.001008   0.000515   0.000382
    143       0.000650  -0.029109  -0.000600  -0.000098  -0.000043  -0.000029
    144       0.001365  -0.062778  -0.000532  -0.000777  -0.000085  -0.000182
    145       0.011305  -0.513007  -0.004435  -0.006091  -0.000240  -0.001249
    146      -0.000604   0.027333   0.000289   0.000207   0.000034   0.000089
    147       0.015277  -0.551121  -0.007171  -0.001411  -0.000330   0.000911
    148       0.006455  -0.232733  -0.003046  -0.000587  -0.000147   0.000354
    149       0.000137  -0.004884  -0.000017   0.000034   0.000003   0.000041


--------------------------
THERMOCHEMISTRY AT 298.15K
--------------------------

Temperature         ... 298.15 K
Pressure            ... 1.00 atm
Total Mass          ... 437.29 AMU

Throughout the following assumptions are being made:
  (1) The electronic state is orbitally nondegenerate
      but the spin degeneracy is treated
  (2) There are no thermally accessible electronically excited states
  (3) Hindered rotations indicated by low frequency modes are not
      treated as such but are treated as vibrations and this may
      cause some error
  (4) All equations used are the standard statistical mechanics
      equations for an ideal gas
  (5) All vibrations are strictly harmonic

freq.      17.60  E(vib)   ...       0.57 
freq.      31.18  E(vib)   ...       0.55 
freq.      34.10  E(vib)   ...       0.55 
freq.      37.88  E(vib)   ...       0.54 
freq.      45.68  E(vib)   ...       0.53 
freq.      49.02  E(vib)   ...       0.53 
freq.      58.02  E(vib)   ...       0.51 
freq.      66.74  E(vib)   ...       0.50 
freq.      75.45  E(vib)   ...       0.49 
freq.      76.44  E(vib)   ...       0.49 
freq.      92.83  E(vib)   ...       0.47 
freq.     106.01  E(vib)   ...       0.45 
freq.     110.75  E(vib)   ...       0.45 
freq.     156.14  E(vib)   ...       0.40 
freq.     159.50  E(vib)   ...       0.39 
freq.     175.42  E(vib)   ...       0.38 
freq.     185.93  E(vib)   ...       0.37 
freq.     221.19  E(vib)   ...       0.33 
freq.     241.43  E(vib)   ...       0.31 
freq.     248.60  E(vib)   ...       0.31 
freq.     255.60  E(vib)   ...       0.30 
freq.     283.92  E(vib)   ...       0.28 
freq.     330.03  E(vib)   ...       0.24 
freq.     339.41  E(vib)   ...       0.23 
freq.     350.74  E(vib)   ...       0.23 
freq.     357.96  E(vib)   ...       0.22 
freq.     406.76  E(vib)   ...       0.19 
freq.     415.15  E(vib)   ...       0.19 
freq.     416.74  E(vib)   ...       0.18 
freq.     419.67  E(vib)   ...       0.18 
freq.     443.26  E(vib)   ...       0.17 
freq.     451.16  E(vib)   ...       0.16 
freq.     463.84  E(vib)   ...       0.16 
freq.     473.28  E(vib)   ...       0.15 
freq.     502.97  E(vib)   ...       0.14 
freq.     509.57  E(vib)   ...       0.14 
freq.     518.28  E(vib)   ...       0.13 
freq.     559.91  E(vib)   ...       0.12 
freq.     587.35  E(vib)   ...       0.10 
freq.     591.66  E(vib)   ...       0.10 
freq.     615.17  E(vib)   ...       0.10 
freq.     617.12  E(vib)   ...       0.09 
freq.     629.96  E(vib)   ...       0.09 
freq.     631.03  E(vib)   ...       0.09 
freq.     632.52  E(vib)   ...       0.09 
freq.     678.78  E(vib)   ...       0.08 
freq.     686.14  E(vib)   ...       0.07 
freq.     696.20  E(vib)   ...       0.07 
freq.     697.87  E(vib)   ...       0.07 
freq.     703.68  E(vib)   ...       0.07 
freq.     712.83  E(vib)   ...       0.07 
freq.     741.66  E(vib)   ...       0.06 
freq.     758.80  E(vib)   ...       0.06 
freq.     784.15  E(vib)   ...       0.05 
freq.     790.74  E(vib)   ...       0.05 
freq.     795.34  E(vib)   ...       0.05 
freq.     816.63  E(vib)   ...       0.05 
freq.     822.68  E(vib)   ...       0.05 
freq.     832.50  E(vib)   ...       0.04 
freq.     858.46  E(vib)   ...       0.04 
freq.     866.73  E(vib)   ...       0.04 
freq.     869.72  E(vib)   ...       0.04 
freq.     874.37  E(vib)   ...       0.04 
freq.     881.77  E(vib)   ...       0.04 
freq.     949.73  E(vib)   ...       0.03 
freq.     953.86  E(vib)   ...       0.03 
freq.     965.02  E(vib)   ...       0.03 
freq.     972.42  E(vib)   ...       0.03 
freq.     985.86  E(vib)   ...       0.02 
freq.     992.73  E(vib)   ...       0.02 
freq.    1007.79  E(vib)   ...       0.02 
freq.    1010.14  E(vib)   ...       0.02 
freq.    1012.68  E(vib)   ...       0.02 
freq.    1018.29  E(vib)   ...       0.02 
freq.    1018.68  E(vib)   ...       0.02 
freq.    1021.48  E(vib)   ...       0.02 
freq.    1026.14  E(vib)   ...       0.02 
freq.    1029.05  E(vib)   ...       0.02 
freq.    1040.16  E(vib)   ...       0.02 
freq.    1055.53  E(vib)   ...       0.02 
freq.    1057.47  E(vib)   ...       0.02 
freq.    1066.68  E(vib)   ...       0.02 
freq.    1074.24  E(vib)   ...       0.02 
freq.    1074.40  E(vib)   ...       0.02 
freq.    1122.68  E(vib)   ...       0.01 
freq.    1127.53  E(vib)   ...       0.01 
freq.    1130.71  E(vib)   ...       0.01 
freq.    1166.48  E(vib)   ...       0.01 
freq.    1180.62  E(vib)   ...       0.01 
freq.    1181.98  E(vib)   ...       0.01 
freq.    1184.64  E(vib)   ...       0.01 
freq.    1200.59  E(vib)   ...       0.01 
freq.    1205.44  E(vib)   ...       0.01 
freq.    1208.53  E(vib)   ...       0.01 
freq.    1229.93  E(vib)   ...       0.01 
freq.    1232.87  E(vib)   ...       0.01 
freq.    1238.82  E(vib)   ...       0.01 
freq.    1253.88  E(vib)   ...       0.01 
freq.    1289.50  E(vib)   ...       0.01 
freq.    1300.12  E(vib)   ...       0.01 
freq.    1346.29  E(vib)   ...       0.01 
freq.    1348.50  E(vib)   ...       0.01 
freq.    1351.67  E(vib)   ...       0.01 
freq.    1366.77  E(vib)   ...       0.01 
freq.    1367.92  E(vib)   ...       0.01 
freq.    1370.63  E(vib)   ...       0.01 
freq.    1398.64  E(vib)   ...       0.00 
freq.    1451.38  E(vib)   ...       0.00 
freq.    1471.27  E(vib)   ...       0.00 
freq.    1489.19  E(vib)   ...       0.00 
freq.    1500.45  E(vib)   ...       0.00 
freq.    1511.26  E(vib)   ...       0.00 
freq.    1521.94  E(vib)   ...       0.00 
freq.    1541.08  E(vib)   ...       0.00 
freq.    1543.34  E(vib)   ...       0.00 
freq.    1554.03  E(vib)   ...       0.00 
freq.    1588.08  E(vib)   ...       0.00 
freq.    1613.36  E(vib)   ...       0.00 
freq.    1655.89  E(vib)   ...       0.00 
freq.    1656.98  E(vib)   ...       0.00 
freq.    1664.29  E(vib)   ...       0.00 
freq.    1675.47  E(vib)   ...       0.00 
freq.    1677.75  E(vib)   ...       0.00 
freq.    1682.26  E(vib)   ...       0.00 
freq.    3196.41  E(vib)   ...       0.00 
freq.    3204.47  E(vib)   ...       0.00 
freq.    3207.71  E(vib)   ...       0.00 
freq.    3212.20  E(vib)   ...       0.00 
freq.    3215.27  E(vib)   ...       0.00 
freq.    3217.16  E(vib)   ...       0.00 
freq.    3217.42  E(vib)   ...       0.00 
freq.    3224.36  E(vib)   ...       0.00 
freq.    3224.99  E(vib)   ...       0.00 
freq.    3225.03  E(vib)   ...       0.00 
freq.    3225.33  E(vib)   ...       0.00 
freq.    3233.04  E(vib)   ...       0.00 
freq.    3235.95  E(vib)   ...       0.00 
freq.    3237.29  E(vib)   ...       0.00 
freq.    3241.23  E(vib)   ...       0.00 
freq.    3245.18  E(vib)   ...       0.00 
freq.    3252.84  E(vib)   ...       0.00 
freq.    3260.42  E(vib)   ...       0.00 
freq.    3298.51  E(vib)   ...       0.00 

------------
INNER ENERGY
------------

The inner energy is: U= E(el) + E(ZPE) + E(vib) + E(rot) + E(trans)
    E(el)   - is the total energy from the electronic structure calculation
              = E(kin-el) + E(nuc-el) + E(el-el) + E(nuc-nuc)
    E(ZPE)  - the the zero temperature vibrational energy from the frequency calculation
    E(vib)  - the the finite temperature correction to E(ZPE) due to population
              of excited vibrational states
    E(rot)  - is the rotational thermal energy
    E(trans)- is the translational thermal energy

Summary of contributions to the inner energy U:
Electronic energy                ...  -1778.29898931 Eh
Zero point energy                ...      0.37856756 Eh     237.55 kcal/mol
Thermal vibrational correction   ...      0.02374401 Eh      14.90 kcal/mol
Thermal rotational correction    ...      0.00141627 Eh       0.89 kcal/mol
Thermal translational correction ...      0.00141627 Eh       0.89 kcal/mol
-----------------------------------------------------------------------
Total thermal energy                  -1777.89384520 Eh


Summary of corrections to the electronic energy:
(perhaps to be used in another calculation)
Total thermal correction                  0.02657655 Eh      16.68 kcal/mol
Non-thermal (ZPE) correction              0.37856756 Eh     237.55 kcal/mol
-----------------------------------------------------------------------
Total correction                          0.40514412 Eh     254.23 kcal/mol


--------
ENTHALPY
--------

The enthalpy is H = U + kB*T
                kB is Boltzmann's constant
Total free energy                 ...  -1777.89384520 Eh 
Thermal Enthalpy correction       ...      0.00094421 Eh       0.59 kcal/mol
-----------------------------------------------------------------------
Total Enthalpy                    ...  -1777.89290099 Eh


Note: Only C1 symmetry has been detected, increase convergence thresholds 
      if your molecule has a higher symmetry. Symmetry factor of 1.0 is   
      used for the rotational entropy correction. 
 

Note: Rotational entropy computed according to Herzberg 
Infrared and Raman Spectra, Chapter V,1, Van Nostrand Reinhold, 1945 
Point Group:  C1, Symmetry Number:   1  
Rotational constants in cm-1:     0.005050     0.004630     0.003106 

Vibrational entropy computed according to the QRRHO of S. Grimme
Chem.Eur.J. 2012 18 9955


-------
ENTROPY
-------

The entropy contributions are T*S = T*(S(el)+S(vib)+S(rot)+S(trans))
     S(el)   - electronic entropy
     S(vib)  - vibrational entropy
     S(rot)  - rotational entropy
     S(trans)- translational entropy
The entropies will be listed as multiplied by the temperature to get
units of energy

Electronic entropy                ...      0.00103729 Eh      0.65 kcal/mol
Vibrational entropy               ...      0.04239188 Eh     26.60 kcal/mol
Rotational entropy                ...      0.01727098 Eh     10.84 kcal/mol
Translational entropy             ...      0.02096083 Eh     13.15 kcal/mol
-----------------------------------------------------------------------
Final entropy term                ...      0.08166098 Eh     51.24 kcal/mol

In case the symmetry of your molecule has not been determined correctly
or in case you have a reason to use a different symmetry number we print 
out the resulting rotational entropy values for sn=1,12 :
 --------------------------------------------------------
|  sn= 1 | S(rot)=       0.01727098 Eh     10.84 kcal/mol|
|  sn= 2 | S(rot)=       0.01661652 Eh     10.43 kcal/mol|
|  sn= 3 | S(rot)=       0.01623369 Eh     10.19 kcal/mol|
|  sn= 4 | S(rot)=       0.01596206 Eh     10.02 kcal/mol|
|  sn= 5 | S(rot)=       0.01575138 Eh      9.88 kcal/mol|
|  sn= 6 | S(rot)=       0.01557923 Eh      9.78 kcal/mol|
|  sn= 7 | S(rot)=       0.01543368 Eh      9.68 kcal/mol|
|  sn= 8 | S(rot)=       0.01530761 Eh      9.61 kcal/mol|
|  sn= 9 | S(rot)=       0.01519640 Eh      9.54 kcal/mol|
|  sn=10 | S(rot)=       0.01509692 Eh      9.47 kcal/mol|
|  sn=11 | S(rot)=       0.01500693 Eh      9.42 kcal/mol|
|  sn=12 | S(rot)=       0.01492477 Eh      9.37 kcal/mol|
 --------------------------------------------------------


-------------------
GIBBS FREE ENERGY
-------------------

The Gibbs free energy is G = H - T*S

Total enthalpy                    ...  -1777.89290099 Eh 
Total entropy correction          ...     -0.08166098 Eh    -51.24 kcal/mol
-----------------------------------------------------------------------
Final Gibbs free energy         ...  -1777.97456197 Eh

For completeness - the Gibbs free energy minus the electronic energy
G-E(el)                           ...      0.32442734 Eh    203.58 kcal/mol


Timings for individual modules:

Sum of individual times         ...    16145.601 sec (= 269.093 min)
GTO integral calculation        ...       41.266 sec (=   0.688 min)   0.3 %
SCF iterations                  ...     5778.653 sec (=  96.311 min)  35.8 %
SCF Gradient evaluation         ...     1199.316 sec (=  19.989 min)   7.4 %
Geometry relaxation             ...        4.301 sec (=   0.072 min)   0.0 %
Analytical frequency calculation...     9122.066 sec (= 152.034 min)  56.5 %
                             ****ORCA TERMINATED NORMALLY****
TOTAL RUN TIME: 0 days 4 hours 29 minutes 31 seconds 79 msec
