      -----------------------------------------------------------      
     |                   =====================                   |     
     |                           x T B                           |     
     |                   =====================                   |     
     |                         S. Grimme                         |     
     |          Mulliken Center for Theoretical Chemistry        |     
     |                    University of Bonn                     |     
      -----------------------------------------------------------      

   * xtb version 6.3.3 (71d3805) compiled by 'conda@b85dec0bf610' on 2021-01-07

   xtb is free software: you can redistribute it and/or modify it under
   the terms of the GNU Lesser General Public License as published by
   the Free Software Foundation, either version 3 of the License, or
   (at your option) any later version.
   
   xtb is distributed in the hope that it will be useful,
   but WITHOUT ANY WARRANTY; without even the implied warranty of
   MERCHANTABILITY or FITNESS FOR A PARTICULAR PURPOSE.  See the
   GNU Lesser General Public License for more details.
   
   Cite this work as:
   * C. Bannwarth, E. Caldeweyher, S. Ehlert, A. Hansen, P. Pracht,
     J. Seibert, S. Spicher, S. Grimme, WIREs Comput. Mol. Sci., 2020,
     e01493. DOI: 10.1002/wcms.1493
   
   for GFN2-xTB:
   * S. Grimme, C. Bannwarth, P. Shushkov, J. Chem. Theory Comput., 2017,
     13, 1989-2009. DOI: 10.1021/acs.jctc.7b00118
   for GFN1-xTB:
   * C. Bannwarth, S. Ehlert and S. Grimme., J. Chem. Theory Comput., 2019,
     15, 1652-1671. DOI: 10.1021/acs.jctc.8b01176
   for GFN0-xTB:
   * P. Pracht, E. Caldeweyher, S. Ehlert, S. Grimme, ChemRxiv, 2019, preprint.
     DOI: 10.26434/chemrxiv.8326202.v1
   for GFN-FF:
   * S. Spicher and S. Grimme, Angew. Chem. Int. Ed., 2020, 59, 15665-15673.
     DOI: 10.1002/anie.202004239
   
   for DFT-D4:
   * E. Caldeweyher, C. Bannwarth and S. Grimme, J. Chem. Phys., 2017,
     147, 034112. DOI: 10.1063/1.4993215
   * E. Caldeweyher, S. Ehlert, A. Hansen, H. Neugebauer, S. Spicher,
     C. Bannwarth and S. Grimme, J. Chem. Phys., 2019, 150, 154122.
     DOI: 10.1063/1.5090222
   * E. Caldeweyher, J.-M. Mewes, S. Ehlert and S. Grimme, Phys. Chem. Chem. Phys.
     2020, 22, 8499-8512. DOI: 10.1039/D0CP00502A
   
   for sTDA-xTB:
   * S. Grimme and C. Bannwarth, J. Chem. Phys., 2016, 145, 054103.
     DOI: 10.1063/1.4959605
   
   in the mass-spec context:
   * V. Asgeirsson, C. Bauer and S. Grimme, Chem. Sci., 2017, 8, 4879.
     DOI: 10.1039/c7sc00601b
   * J. Koopman and S. Grimme, ACS Omega 2019, 4, 12, 15120-15133.
     DOI: 10.1021/acsomega.9b02011
   
   for metadynamics refer to:
   * S. Grimme, J. Chem. Theory Comput., 2019, 155, 2847-2862
     DOI: 10.1021/acs.jctc.9b00143
   
   with help from (in alphabetical order)
   C. Bannwarth, F. Bohle, G. Brandenburg, E. Caldeweyher, M. Checinski,
   S. Dohm, S. Ehlert, S. Ehrlich, F. März, H. Neugebauer, J. Pisarek,
   P. Pracht, P. Shushkov, and S. Spicher.
   
 * started run on 2024/05/31 at 17:50:19.857     

           -------------------------------------------------
          |                Calculation Setup                |
           -------------------------------------------------

          program call               : /home/thijs/miniconda3/envs/ts-tools/bin/xtb TS_dOr2Us_ll_ad_0-5_0-1_conf0_opt_xtb.xyz --chrg -1 --uhf 0 --opt --gbsa Water --input xcontrol_TS_dOr2Us_ll_ad_0-5_0-1_conf0_opt_xtb
          hostname                   : dale
          coordinate file            : TS_dOr2Us_ll_ad_0-5_0-1_conf0_opt_xtb.xyz
          omp threads                :                     2
          number of atoms            :                     6
          number of electrons        :                    22
          charge                     :                    -1
          spin                       :                   0.0
          first test random number   :      0.44916493411872

   ID    Z sym.   atoms
    1    6 C      1
    2   17 Cl     2
    3    1 H      3-5
    4    9 F      6
constraining bond 1 2 to    2.1322000 Å, actual value:    2.1321628 Å
constraining bond 1 6 to    1.9961000 Å, actual value:    1.9961363 Å

molecular fragmentation (1/2 indicates fragments):
111112
# atoms in fragment 1/2:     5     1
 fragment masses (1/2) :       50.49       19.00
CMA distance (Bohr)    :   6.577
constraining FC (au)   :  2.0000

           -------------------------------------------------
          |                 G F N 2 - x T B                 |
           -------------------------------------------------

        Reference                      10.1021/acs.jctc.8b01176
      * Hamiltonian:
        H0-scaling (s, p, d)           1.850000    2.230000    2.230000
        zeta-weighting                 0.500000
      * Dispersion:
        s8                             2.700000
        a1                             0.520000
        a2                             5.000000
        s9                             5.000000
      * Repulsion:
        kExp                           1.500000    1.000000
        rExp                           1.000000
      * Coulomb:
        alpha                          2.000000
        third order                    shell-resolved
        anisotropic                    true
        a3                             3.000000
        a5                             4.000000
        cn-shift                       1.200000
        cn-exp                         4.000000
        max-rad                        5.000000

      * Solvation model:               GBSA
        Solvent                        Water
        Parameter file                 internal GFN2-xTB/GBSA
        Dielectric constant                8.0200E+01
        Reference state                gsolv [1 M gas/solution]
        Free energy shift                  1.8574E-03 Eh       1.1656E+00 kcal/mol
        Temperature                        2.9815E+02 K
        Density                            1.0000E+00 kg/L
        Solvent mass                       1.8000E+01 g/mol
        Interaction kernel             Still
        Born radius scaling (c1)           1.5524E+00
        Born radii integrator          GBOBC
        Born offset                        2.4628E-02 a0       4.6540E-02 AA
        H-bond correction              true
        Ion screening                  false
        Surface tension                    1.0000E-05 Eh       1.5569E+01 dyn/cm
        Grid points                               230 per atom

          ...................................................
          :                      SETUP                      :
          :.................................................:
          :  # basis functions                  21          :
          :  # atomic orbitals                  20          :
          :  # shells                           10          :
          :  # electrons                        22          :
          :  max. iterations                   250          :
          :  Hamiltonian                  GFN2-xTB          :
          :  restarted?                      false          :
          :  GBSA solvation                   true          :
          :  PC potential                    false          :
          :  electronic temp.          300.0000000     K    :
          :  accuracy                    1.0000000          :
          :  -> integral cutoff          0.2500000E+02      :
          :  -> integral neglect         0.1000000E-07      :
          :  -> SCF convergence          0.1000000E-05 Eh   :
          :  -> wf. convergence          0.1000000E-03 e    :
          :  Broyden damping             0.4000000          :
          ...................................................

 iter      E             dE          RMSdq      gap      omega  full diag
   1    -13.1976063 -0.131976E+02  0.617E+00    5.66       0.0  T
   2    -13.2837081 -0.861018E-01  0.239E+00    3.47       1.0  T
   3    -13.2917907 -0.808259E-02  0.153E+00    4.05       1.0  T
   4    -13.2927608 -0.970186E-03  0.278E-01    3.85       1.0  T
   5    -13.2929328 -0.172002E-03  0.189E-01    3.96       1.0  T
   6    -13.2930306 -0.977093E-04  0.899E-02    3.90       1.0  T
   7    -13.2930474 -0.168332E-04  0.564E-02    3.89       1.0  T
   8    -13.2930557 -0.832540E-05  0.220E-02    3.89       1.9  T
   9    -13.2930577 -0.201435E-05  0.348E-03    3.90      11.7  T
  10    -13.2930578 -0.412479E-07  0.101E-03    3.90      40.6  T
  11    -13.2930578 -0.129040E-08  0.738E-04    3.90      55.3  T
  12    -13.2930578 -0.176879E-08  0.116E-04    3.90     352.6  T

   *** convergence criteria satisfied after 12 iterations ***

         #    Occupation            Energy/Eh            Energy/eV
      -------------------------------------------------------------
         1        2.0000           -1.0242555             -27.8714
       ...           ...                  ...                  ...
         5        2.0000           -0.4939257             -13.4404
         6        2.0000           -0.4437883             -12.0761
         7        2.0000           -0.3971526             -10.8071
         8        2.0000           -0.3965105             -10.7896
         9        2.0000           -0.3781283             -10.2894
        10        2.0000           -0.3776810             -10.2772
        11        2.0000           -0.3736279             -10.1669 (HOMO)
        12                         -0.2303547              -6.2683 (LUMO)
        13                          0.0572786               1.5586
        14                          0.0749699               2.0400
        15                          0.0749976               2.0408
        16                          0.0755430               2.0556
       ...                                ...                  ...
        20                          0.2496367               6.7930
      -------------------------------------------------------------
                  HL-Gap            0.1432732 Eh            3.8987 eV
             Fermi-level           -0.3019913 Eh           -8.2176 eV

 SCC (total)                   0 d,  0 h,  0 min,  0.008 sec
 SCC setup                      ...        0 min,  0.000 sec (  4.450%)
 Dispersion                     ...        0 min,  0.000 sec (  0.329%)
 classical contributions        ...        0 min,  0.000 sec (  0.258%)
 integral evaluation            ...        0 min,  0.001 sec ( 15.298%)
 iterations                     ...        0 min,  0.005 sec ( 62.007%)
 molecular gradient             ...        0 min,  0.001 sec ( 15.006%)
 printout                       ...        0 min,  0.000 sec (  2.472%)

         :::::::::::::::::::::::::::::::::::::::::::::::::::::
         ::                     SUMMARY                     ::
         :::::::::::::::::::::::::::::::::::::::::::::::::::::
         :: total energy             -13.241914453586 Eh    ::
         :: total w/o Gsasa/hb       -13.241514025258 Eh    ::
         :: gradient norm              0.035642771244 Eh/a0 ::
         :: HOMO-LUMO gap              3.898663488262 eV    ::
         ::.................................................::
         :: SCC energy               -13.293057769519 Eh    ::
         :: -> isotropic ES            0.195426740116 Eh    ::
         :: -> anisotropic ES         -0.000020893812 Eh    ::
         :: -> anisotropic XC          0.003837789984 Eh    ::
         :: -> dispersion             -0.002025450202 Eh    ::
         :: -> Gsolv                  -0.097516040814 Eh    ::
         ::    -> Gborn               -0.097115612485 Eh    ::
         ::    -> Gsasa                0.000604297370 Eh    ::
         ::    -> Ghb                 -0.002862168825 Eh    ::
         ::    -> Gshift               0.001857443127 Eh    ::
         :: repulsion energy           0.051143375797 Eh    ::
         :: add. restraining           0.000000019298 Eh    ::
         :: total charge              -1.000000000000 e     ::
         :::::::::::::::::::::::::::::::::::::::::::::::::::::

      ----------------------------------------------------------- 
     |                   =====================                   |
     |                        A N C O P T                        |
     |                   =====================                   |
     |               Approximate Normal Coordinate               |
     |                Rational Function Optimizer                |
      ----------------------------------------------------------- 

          ...................................................
          :                      SETUP                      :
          :.................................................:
          :   optimization level            normal          :
          :   max. optcycles                   200          :
          :   ANC micro-cycles                  20          :
          :   degrees of freedom                12          :
          :.................................................:
          :   RF solver                   davidson          :
          :   write xtbopt.log                true          :
          :   linear?                        false          :
          :   energy convergence         0.5000000E-05 Eh   :
          :   grad. convergence          0.1000000E-02 Eh/α :
          :   maximium RF displ.         1.0000000          :
          :   Hlow (freq-cutoff)         0.1000000E-01      :
          :   Hmax (freq-cutoff)         5.0000000          :
          :   S6 in model hess.         20.0000000          :
          ...................................................

generating ANC from model Hessian ...
Using Lindh-Hessian (1995)
 Shifting diagonal of input Hessian by    5.1470277629112274E-003
 Lowest  eigenvalues of input Hessian
    0.000000    0.000000    0.000000    0.000000    0.000000    0.000000
    0.010000    0.010841    0.022124    0.024610    0.035497    0.149601
    0.151835    0.415079    1.169975    1.195572    4.181805   12.246557
 Highest eigenvalues
    0.151835    0.415079    1.169975    1.195572    4.181805   12.246557


........................................................................
.............................. CYCLE    1 ..............................
........................................................................
   1    -13.2930578 -0.132931E+02  0.274E-05    3.90       0.0  T
   2    -13.2930578 -0.199663E-11  0.103E-05    3.90    3965.3  T
   3    -13.2930578 -0.509814E-12  0.446E-06    3.90    9144.9  T
     SCC iter.                  ...        0 min,  0.001 sec
     gradient                   ...        0 min,  0.001 sec
 * total energy  :   -13.2419145 Eh     change       -0.3916867E-10 Eh
   gradient norm :     0.0356428 Eh/α   predicted     0.0000000E+00 (-100.00%)
   displ. norm   :     0.5501411 α      lambda       -0.1453586E-01
   maximum displ.:     0.4784110 α      in ANC's #5, #2, #3, ...

........................................................................
.............................. CYCLE    2 ..............................
........................................................................
   1    -13.2950155 -0.132950E+02  0.912E-01    3.78       0.0  T
   2    -13.2950891 -0.736172E-04  0.545E-01    3.82       1.0  T
   3    -13.2950548  0.343915E-04  0.137E-01    3.76       1.0  T
   4    -13.2951149 -0.601347E-04  0.345E-02    3.80       1.2  T
   5    -13.2951174 -0.254177E-05  0.176E-02    3.80       2.3  T
   6    -13.2951183 -0.856017E-06  0.854E-03    3.80       4.8  T
   7    -13.2951185 -0.192155E-06  0.826E-04    3.80      49.4  T
   8    -13.2951185 -0.734145E-09  0.330E-04    3.80     123.8  T
     SCC iter.                  ...        0 min,  0.002 sec
     gradient                   ...        0 min,  0.001 sec
 * total energy  :   -13.2449367 Eh     change       -0.3022262E-02 Eh
   gradient norm :     0.0579875 Eh/α   predicted    -0.9467606E-02 ( 213.26%)
   displ. norm   :     0.2373807 α      lambda       -0.5475922E-02
   maximum displ.:     0.1996853 α      in ANC's #5, #2, #8, ...

........................................................................
.............................. CYCLE    3 ..............................
........................................................................
   1    -13.3076986 -0.133077E+02  0.388E-01    3.88       0.0  T
   2    -13.3077023 -0.373178E-05  0.230E-01    3.88       1.0  T
   3    -13.3077037 -0.137161E-05  0.154E-02    3.87       2.6  T
   4    -13.3077041 -0.426490E-06  0.852E-03    3.88       4.8  T
   5    -13.3077042 -0.628602E-07  0.450E-03    3.88       9.1  T
   6    -13.3077042 -0.330860E-07  0.257E-03    3.88      15.9  T
   7    -13.3077042 -0.122099E-07  0.116E-03    3.88      35.2  T
   8    -13.3077042 -0.287856E-08  0.241E-04    3.88     169.7  T
   9    -13.3077042 -0.145214E-09  0.962E-05    3.88     424.6  T
     SCC iter.                  ...        0 min,  0.002 sec
     gradient                   ...        0 min,  0.001 sec
 * total energy  :   -13.2471503 Eh     change       -0.2213550E-02 Eh
   gradient norm :     0.0617779 Eh/α   predicted    -0.2892245E-02 (  30.66%)
   displ. norm   :     0.3212166 α      lambda       -0.2748862E-02
   maximum displ.:     0.3153926 α      in ANC's #2, #5, #3, ...

........................................................................
.............................. CYCLE    4 ..............................
........................................................................
   1    -13.3089383 -0.133089E+02  0.200E-01    3.96       0.0  T
   2    -13.3089399 -0.161136E-05  0.121E-01    3.96       1.0  T
   3    -13.3089417 -0.179552E-05  0.198E-02    3.97       2.1  T
   4    -13.3089421 -0.438364E-06  0.165E-02    3.96       2.5  T
   5    -13.3089428 -0.665253E-06  0.836E-03    3.96       4.9  T
   6    -13.3089429 -0.181583E-06  0.211E-03    3.96      19.3  T
   7    -13.3089430 -0.420868E-08  0.101E-03    3.96      40.4  T
   8    -13.3089430 -0.145318E-08  0.608E-04    3.96      67.1  T
   9    -13.3089430 -0.875314E-09  0.142E-04    3.96     287.6  T
     SCC iter.                  ...        0 min,  0.002 sec
     gradient                   ...        0 min,  0.001 sec
 * total energy  :   -13.2453228 Eh     change        0.1827475E-02 Eh
   gradient norm :     0.0903930 Eh/α   predicted    -0.1516253E-02 (-182.97%)
   displ. norm   :     0.1749414 α      lambda       -0.2769851E-02
   maximum displ.:     0.1632263 α      in ANC's #2, #5, #8, ...

........................................................................
.............................. CYCLE    5 ..............................
........................................................................
   1    -13.3063017 -0.133063E+02  0.137E-01    3.92       0.0  T
   2    -13.3063024 -0.730258E-06  0.823E-02    3.92       1.0  T
   3    -13.3063029 -0.547219E-06  0.134E-02    3.92       3.0  T
   4    -13.3063032 -0.220765E-06  0.992E-03    3.92       4.1  T
   5    -13.3063034 -0.264557E-06  0.467E-03    3.92       8.7  T
   6    -13.3063035 -0.506260E-07  0.113E-03    3.92      36.1  T
   7    -13.3063035 -0.195872E-08  0.432E-04    3.92      94.6  T
   8    -13.3063035 -0.215916E-09  0.279E-04    3.92     146.5  T
     SCC iter.                  ...        0 min,  0.002 sec
     gradient                   ...        0 min,  0.001 sec
 * total energy  :   -13.2473064 Eh     change       -0.1983590E-02 Eh
   gradient norm :     0.0188757 Eh/α   predicted    -0.1427313E-02 ( -28.04%)
   displ. norm   :     0.2202575 α      lambda       -0.9668210E-03
   maximum displ.:     0.2182685 α      in ANC's #2, #5, #3, ...

........................................................................
.............................. CYCLE    6 ..............................
........................................................................
   1    -13.3058525 -0.133059E+02  0.125E-01    3.86       0.0  T
   2    -13.3058535 -0.940065E-06  0.751E-02    3.86       1.0  T
   3    -13.3058538 -0.365481E-06  0.152E-02    3.86       2.7  T
   4    -13.3058543 -0.471221E-06  0.110E-02    3.86       3.7  T
   5    -13.3058546 -0.256738E-06  0.577E-03    3.86       7.1  T
   6    -13.3058547 -0.893706E-07  0.135E-03    3.86      30.2  T
   7    -13.3058547 -0.220576E-08  0.682E-04    3.86      59.8  T
   8    -13.3058547 -0.776090E-09  0.416E-04    3.86      98.2  T
     SCC iter.                  ...        0 min,  0.002 sec
     gradient                   ...        0 min,  0.001 sec
 * total energy  :   -13.2470676 Eh     change        0.2388008E-03 Eh
   gradient norm :     0.0671061 Eh/α   predicted    -0.5068541E-03 (-312.25%)
   displ. norm   :     0.1301492 α      lambda       -0.1338360E-02
   maximum displ.:     0.1279117 α      in ANC's #2, #5, #3, ...

........................................................................
.............................. CYCLE    7 ..............................
........................................................................
   1    -13.3064134 -0.133064E+02  0.839E-02    3.91       0.0  T
   2    -13.3064138 -0.458375E-06  0.504E-02    3.91       1.0  T
   3    -13.3064140 -0.199482E-06  0.106E-02    3.92       3.9  T
   4    -13.3064143 -0.220672E-06  0.784E-03    3.91       5.2  T
   5    -13.3064144 -0.139528E-06  0.377E-03    3.91      10.8  T
   6    -13.3064144 -0.376160E-07  0.879E-04    3.91      46.5  T
   7    -13.3064144 -0.905619E-09  0.474E-04    3.91      86.0  T
     SCC iter.                  ...        0 min,  0.001 sec
     gradient                   ...        0 min,  0.001 sec
 * total energy  :   -13.2475627 Eh     change       -0.4951248E-03 Eh
   gradient norm :     0.0026920 Eh/α   predicted    -0.6805161E-03 (  37.44%)
   displ. norm   :     0.0326402 α      lambda       -0.5253563E-04
   maximum displ.:     0.0297872 α      in ANC's #2, #3, #5, ...

........................................................................
.............................. CYCLE    8 ..............................
........................................................................
   1    -13.3064370 -0.133064E+02  0.315E-02    3.91       0.0  T
   2    -13.3064370 -0.192356E-07  0.184E-02    3.91       2.2  T
   3    -13.3064370 -0.152983E-07  0.203E-03    3.91      20.1  T
   4    -13.3064370 -0.452266E-08  0.163E-03    3.91      25.0  T
   5    -13.3064370 -0.584198E-08  0.425E-04    3.91      96.1  T
   6    -13.3064370 -0.190630E-09  0.840E-05    3.91     485.9  T
     SCC iter.                  ...        0 min,  0.001 sec
     gradient                   ...        0 min,  0.001 sec
 * total energy  :   -13.2476017 Eh     change       -0.3898873E-04 Eh
   gradient norm :     0.0049807 Eh/α   predicted    -0.2629666E-04 ( -32.55%)
   displ. norm   :     0.0607379 α      lambda       -0.6304383E-04
   maximum displ.:     0.0590342 α      in ANC's #2, #3, #11, ...

........................................................................
.............................. CYCLE    9 ..............................
........................................................................
   1    -13.3065541 -0.133066E+02  0.420E-02    3.91       0.0  T
   2    -13.3065541 -0.391331E-07  0.249E-02    3.91       1.6  T
   3    -13.3065541 -0.187190E-07  0.206E-03    3.91      19.9  T
   4    -13.3065541 -0.412588E-08  0.125E-03    3.91      32.7  T
   5    -13.3065541 -0.169459E-08  0.919E-04    3.91      44.4  T
   6    -13.3065541 -0.214804E-08  0.311E-04    3.91     131.4  T
     SCC iter.                  ...        0 min,  0.001 sec
     gradient                   ...        0 min,  0.001 sec
 * total energy  :   -13.2476184 Eh     change       -0.1669626E-04 Eh
   gradient norm :     0.0121455 Eh/α   predicted    -0.3163828E-04 (  89.49%)
   displ. norm   :     0.0172964 α      lambda       -0.3544785E-04
   maximum displ.:     0.0170455 α      in ANC's #3, #5, #11, ...

........................................................................
.............................. CYCLE   10 ..............................
........................................................................
   1    -13.3065014 -0.133065E+02  0.371E-02    3.91       0.0  T
   2    -13.3065015 -0.125290E-06  0.213E-02    3.91       1.9  T
   3    -13.3065016 -0.247749E-07  0.254E-03    3.91      16.1  T
   4    -13.3065016 -0.654072E-08  0.121E-03    3.91      33.6  T
   5    -13.3065016 -0.141772E-08  0.996E-04    3.91      41.0  T
   6    -13.3065016 -0.308823E-08  0.219E-04    3.91     186.6  T
     SCC iter.                  ...        0 min,  0.001 sec
     gradient                   ...        0 min,  0.001 sec
 * total energy  :   -13.2476309 Eh     change       -0.1252596E-04 Eh
   gradient norm :     0.0096991 Eh/α   predicted    -0.1772786E-04 (  41.53%)
   displ. norm   :     0.0090888 α      lambda       -0.1302471E-04
   maximum displ.:     0.0088123 α      in ANC's #2, #3, #5, ...

........................................................................
.............................. CYCLE   11 ..............................
........................................................................
   1    -13.3065321 -0.133065E+02  0.880E-03    3.91       0.0  T
   2    -13.3065322 -0.626689E-07  0.410E-03    3.92       9.9  T
   3    -13.3065322 -0.831876E-08  0.124E-03    3.92      32.8  T
   4    -13.3065322 -0.225890E-09  0.510E-04    3.92      80.0  T
   5    -13.3065322 -0.486482E-09  0.257E-04    3.92     158.7  T
     SCC iter.                  ...        0 min,  0.001 sec
     gradient                   ...        0 min,  0.001 sec
 * total energy  :   -13.2476354 Eh     change       -0.4438057E-05 Eh
   gradient norm :     0.0029169 Eh/α   predicted    -0.6513920E-05 (  46.77%)
   displ. norm   :     0.0077404 α      lambda       -0.2699388E-05
   maximum displ.:     0.0066199 α      in ANC's #2, #3, #11, ...

........................................................................
.............................. CYCLE   12 ..............................
........................................................................
   1    -13.3065420 -0.133065E+02  0.898E-03    3.92       0.0  T
   2    -13.3065420 -0.400958E-08  0.523E-03    3.92       7.8  T
   3    -13.3065420 -0.628654E-09  0.402E-04    3.92     101.6  T
   4    -13.3065420 -0.148647E-09  0.142E-04    3.92     287.5  T
     SCC iter.                  ...        0 min,  0.001 sec
     gradient                   ...        0 min,  0.001 sec
 * total energy  :   -13.2476368 Eh     change       -0.1422296E-05 Eh
   gradient norm :     0.0005217 Eh/α   predicted    -0.1348398E-05 (  -5.20%)
   displ. norm   :     0.0034985 α      lambda       -0.1574477E-06
   maximum displ.:     0.0033251 α      in ANC's #2, #3, #11, ...

   *** GEOMETRY OPTIMIZATION CONVERGED AFTER 12 ITERATIONS ***

------------------------------------------------------------------------
 total energy gain   :        -0.0057223 Eh       -3.5908 kcal/mol
 total RMSD          :         0.2068131 a0        0.1094 Å
 total power (kW/mol):        -1.2519963 (step) -372.6680 (real)
------------------------------------------------------------------------

 ANCopt (total)                0 d,  0 h,  0 min,  0.040 sec
 optimizer setup                ...        0 min,  0.000 sec (  0.212%)
 model hessian                  ...        0 min,  0.000 sec (  0.624%)
 ANC generation                 ...        0 min,  0.000 sec (  0.293%)
 coordinate transformation      ...        0 min,  0.000 sec (  0.081%)
 single point calculation       ...        0 min,  0.038 sec ( 93.807%)
 optimization log               ...        0 min,  0.001 sec (  1.558%)
 hessian update                 ...        0 min,  0.000 sec (  0.139%)
 rational function              ...        0 min,  0.001 sec (  1.657%)

================
 final structure:
================
6
 xtb: 6.3.3 (71d3805)
C         5.38918643091254    0.66636563051129   -1.04984253036102
Cl        6.99629574168824   -0.38174968268396   -1.97610908866429
H         5.06292264868918    1.15478213607594   -1.94472683973241
H         4.87686553456130   -0.21312994459221   -0.71873270318817
H         6.00733088326714    1.20162041766977   -0.35904854503400
F         3.88399876088163    1.65017144301918   -0.18243029302012

 Bond Distances (Angstroems)
 ---------------------------
C1-Cl2=2.1306        C1-H3=1.0704         C1-H4=1.0703         C1-H5=1.0704         Cl2-C1=2.1306        H3-C1=1.0704         
H4-C1=1.0703         H5-C1=1.0704         
 C  H  Rav=1.0704 sigma=0.0000  Rmin=1.0703  Rmax=1.0704     3
 Cl C  Rav=2.1306 sigma=0.0000  Rmin=2.1306  Rmax=2.1306     1

 selected bond angles (degree)
 --------------------
H3-C1-Cl2= 95.22               H4-C1-Cl2= 95.24               H4-C1-H3=119.19                H5-C1-Cl2= 95.22               
H5-C1-H3=119.17                H5-C1-H4=119.19                

 selected dihedral angles (degree)
 ---------------------------------


 CMA Distance (Angstroems)
 ---------------------------
R(CMA):  3.4867
           -------------------------------------------------
          |                Final Singlepoint                |
           -------------------------------------------------

          ...................................................
          :                      SETUP                      :
          :.................................................:
          :  # basis functions                  21          :
          :  # atomic orbitals                  20          :
          :  # shells                           10          :
          :  # electrons                        22          :
          :  max. iterations                   250          :
          :  Hamiltonian                  GFN2-xTB          :
          :  restarted?                      false          :
          :  GBSA solvation                   true          :
          :  PC potential                    false          :
          :  electronic temp.          300.0000000     K    :
          :  accuracy                    1.0000000          :
          :  -> integral cutoff          0.2500000E+02      :
          :  -> integral neglect         0.1000000E-07      :
          :  -> SCF convergence          0.1000000E-05 Eh   :
          :  -> wf. convergence          0.1000000E-03 e    :
          :  Broyden damping             0.4000000          :
          ...................................................

 iter      E             dE          RMSdq      gap      omega  full diag
   1    -13.3065420 -0.133065E+02  0.803E-05    3.92       0.0  T
   2    -13.3065420 -0.480327E-11  0.670E-05    3.92     609.2  T
   3    -13.3065420 -0.115676E-10  0.306E-05    3.92    1333.4  T

   *** convergence criteria satisfied after 3 iterations ***

         #    Occupation            Energy/Eh            Energy/eV
      -------------------------------------------------------------
         1        2.0000           -1.0239319             -27.8626
       ...           ...                  ...                  ...
         5        2.0000           -0.4928339             -13.4107
         6        2.0000           -0.4456316             -12.1263
         7        2.0000           -0.3968854             -10.7998
         8        2.0000           -0.3968844             -10.7998
         9        2.0000           -0.3743341             -10.1861
        10        2.0000           -0.3743315             -10.1861
        11        2.0000           -0.3717252             -10.1152 (HOMO)
        12                         -0.2278364              -6.1997 (LUMO)
        13                          0.0737759               2.0075
        14                          0.0737771               2.0076
        15                          0.0742915               2.0216
        16                          0.0742930               2.0216
       ...                                ...                  ...
        20                          0.2759485               7.5089
      -------------------------------------------------------------
                  HL-Gap            0.1438888 Eh            3.9154 eV
             Fermi-level           -0.2997808 Eh           -8.1575 eV

 SCC (total)                   0 d,  0 h,  0 min,  0.003 sec
 SCC setup                      ...        0 min,  0.000 sec ( 11.637%)
 Dispersion                     ...        0 min,  0.000 sec (  0.513%)
 classical contributions        ...        0 min,  0.000 sec (  0.175%)
 integral evaluation            ...        0 min,  0.001 sec ( 32.847%)
 iterations                     ...        0 min,  0.001 sec ( 24.141%)
 molecular gradient             ...        0 min,  0.001 sec ( 25.525%)
 printout                       ...        0 min,  0.000 sec (  4.819%)

         :::::::::::::::::::::::::::::::::::::::::::::::::::::
         ::                     SUMMARY                     ::
         :::::::::::::::::::::::::::::::::::::::::::::::::::::
         :: total energy             -13.247636775950 Eh    ::
         :: total w/o Gsasa/hb       -13.247159822616 Eh    ::
         :: gradient norm              0.000522466599 Eh/a0 ::
         :: HOMO-LUMO gap              3.915414174820 eV    ::
         ::.................................................::
         :: SCC energy               -13.306541968824 Eh    ::
         :: -> isotropic ES            0.198978482872 Eh    ::
         :: -> anisotropic ES         -0.000508639647 Eh    ::
         :: -> anisotropic XC          0.003826438455 Eh    ::
         :: -> dispersion             -0.002025391439 Eh    ::
         :: -> Gsolv                  -0.098209826106 Eh    ::
         ::    -> Gborn               -0.097732872773 Eh    ::
         ::    -> Gsasa                0.000559533274 Eh    ::
         ::    -> Ghb                 -0.002893929734 Eh    ::
         ::    -> Gshift               0.001857443127 Eh    ::
         :: repulsion energy           0.058885301749 Eh    ::
         :: add. restraining           0.000019990977 Eh    ::
         :: total charge              -1.000000000000 e     ::
         :::::::::::::::::::::::::::::::::::::::::::::::::::::

           -------------------------------------------------
          |                Property Printout                |
           -------------------------------------------------

    * Orbital Energies and Occupations

         #    Occupation            Energy/Eh            Energy/eV
      -------------------------------------------------------------
         1        2.0000           -1.0239319             -27.8626
         2        2.0000           -0.6561940             -17.8559
         3        2.0000           -0.5837575             -15.8849
         4        2.0000           -0.4928530             -13.4112
         5        2.0000           -0.4928339             -13.4107
         6        2.0000           -0.4456316             -12.1263
         7        2.0000           -0.3968854             -10.7998
         8        2.0000           -0.3968844             -10.7998
         9        2.0000           -0.3743341             -10.1861
        10        2.0000           -0.3743315             -10.1861
        11        2.0000           -0.3717252             -10.1152 (HOMO)
        12                         -0.2278364              -6.1997 (LUMO)
        13                          0.0737759               2.0075
        14                          0.0737771               2.0076
        15                          0.0742915               2.0216
        16                          0.0742930               2.0216
        17                          0.0803925               2.1876
        18                          0.1316674               3.5829
        19                          0.2757366               7.5032
        20                          0.2759485               7.5089
      -------------------------------------------------------------
                  HL-Gap            0.1438888 Eh            3.9154 eV
             Fermi-level           -0.2997808 Eh           -8.1575 eV

     #   Z          covCN         q      C6AA      α(0)
     1   6 C        3.663     0.026    20.401     6.479
     2  17 Cl       0.721    -0.543   117.007    16.545
     3   1 H        0.926     0.088     1.902     2.157
     4   1 H        0.927     0.088     1.902     2.157
     5   1 H        0.926     0.088     1.902     2.157
     6   9 F        0.162    -0.745    19.250     5.114

 Mol. C6AA /au·bohr⁶  :        562.720683
 Mol. C8AA /au·bohr⁸  :      15902.468663
 Mol. α(0) /au        :         34.608701


Wiberg/Mayer (AO) data.
largest (>0.10) Wiberg bond orders for each atom

 ---------------------------------------------------------------------------
     #   Z sym  total        # sym  WBO       # sym  WBO       # sym  WBO
 ---------------------------------------------------------------------------
     1   6 C    3.889 --     4 H    0.990     5 H    0.990     3 H    0.990
                             2 Cl   0.590     6 F    0.328
     2  17 Cl   0.710 --     1 C    0.590     6 F    0.116
     3   1 H    0.992 --     1 C    0.990
     4   1 H    0.992 --     1 C    0.990
     5   1 H    0.992 --     1 C    0.990
     6   9 F    0.444 --     1 C    0.328     2 Cl   0.116
 ---------------------------------------------------------------------------

Topologies differ in total number of bonds
Writing topology from bond orders to xtbtopo.mol

molecular dipole:
                 x           y           z       tot (Debye)
 q only:       -9.751      -1.545       1.734
   full:       -9.882      -1.459       1.810      25.802
molecular quadrupole (traceless):
                xx          xy          yy          xz          yz          zz
 q only:      -99.303     -11.674      49.330      35.007      -2.276      49.972
  q+dip:     -102.993      -8.936      51.441      38.032      -3.355      51.552
   full:     -102.598      -9.558      51.288      37.482      -2.997      51.310

           -------------------------------------------------
          |                Geometry Summary                 |
           -------------------------------------------------

      molecular mass/u    :       69.4858989
   center of mass at/Å    :        5.7944254       0.4026761      -1.2834352
  moments of inertia/u·Å² :        0.3435806E+01   0.2183698E+03   0.2183700E+03
rotational constants/cm⁻¹ :        0.4906456E+01   0.7719764E-01   0.7719755E-01

 * 3 selected distances

     #   Z          #   Z                                           value/Å
     1   6 C        3   1 H                                       1.0704283 (max)
     1   6 C        4   1 H                                       1.0703359 (min)
     1   6 C        5   1 H                                       1.0704189

 * 1 distinct bonds (by element types)

   Z      Z             #   av. dist./Å        max./Å        min./Å
   1 H    6 C           3     1.0703943     1.0704283     1.0703359


optimized geometry written to: xtbopt.xyz


           -------------------------------------------------
          | TOTAL ENERGY              -13.247636775950 Eh   |
          | GRADIENT NORM               0.000522466599 Eh/α |
          | HOMO-LUMO GAP               3.915414174820 eV   |
           -------------------------------------------------

------------------------------------------------------------------------
 * finished run on 2024/05/31 at 17:50:19.970     
------------------------------------------------------------------------
 total:
 * wall-time:     0 d,  0 h,  0 min,  0.113 sec
 *  cpu-time:     0 d,  0 h,  0 min,  0.248 sec
 * ratio c/w:     2.188 speedup
 SCF:
 * wall-time:     0 d,  0 h,  0 min,  0.008 sec
 *  cpu-time:     0 d,  0 h,  0 min,  0.024 sec
 * ratio c/w:     2.883 speedup
 ANC optimizer:
 * wall-time:     0 d,  0 h,  0 min,  0.044 sec
 *  cpu-time:     0 d,  0 h,  0 min,  0.131 sec
 * ratio c/w:     2.992 speedup

