 Entering Gaussian System, Link 0=/opt/gaussian/g16/C01/g16/g16
 Input=TS_dOr2Us_ll_ad_0-5_0-1_conf0_opt_g16.com
 Output=TS_dOr2Us_ll_ad_0-5_0-1_conf0_opt_g16.log
 Initial command:
 /opt/gaussian/g16/C01/g16/l1.exe "/home/thijs/scratch/Gau-2620891.inp" -scrdir="/home/thijs/scratch/"
 Entering Link 1 = /opt/gaussian/g16/C01/g16/l1.exe PID=   2620893.
  
 Copyright (c) 1988-2019, Gaussian, Inc.  All Rights Reserved.
  
 This is part of the Gaussian(R) 16 program.  It is based on
 the Gaussian(R) 09 system (copyright 2009, Gaussian, Inc.),
 the Gaussian(R) 03 system (copyright 2003, Gaussian, Inc.),
 the Gaussian(R) 98 system (copyright 1998, Gaussian, Inc.),
 the Gaussian(R) 94 system (copyright 1995, Gaussian, Inc.),
 the Gaussian 92(TM) system (copyright 1992, Gaussian, Inc.),
 the Gaussian 90(TM) system (copyright 1990, Gaussian, Inc.),
 the Gaussian 88(TM) system (copyright 1988, Gaussian, Inc.),
 the Gaussian 86(TM) system (copyright 1986, Carnegie Mellon
 University), and the Gaussian 82(TM) system (copyright 1983,
 Carnegie Mellon University). Gaussian is a federally registered
 trademark of Gaussian, Inc.
  
 This software contains proprietary and confidential information,
 including trade secrets, belonging to Gaussian, Inc.
  
 This software is provided under written license and may be
 used, copied, transmitted, or stored only in accord with that
 written license.
  
 The following legend is applicable only to US Government
 contracts under FAR:
  
                    RESTRICTED RIGHTS LEGEND
  
 Use, reproduction and disclosure by the US Government is
 subject to restrictions as set forth in subparagraphs (a)
 and (c) of the Commercial Computer Software - Restricted
 Rights clause in FAR 52.227-19.
  
 Gaussian, Inc.
 340 Quinnipiac St., Bldg. 40, Wallingford CT 06492
  
  
 ---------------------------------------------------------------
 Warning -- This program may not be used in any manner that
 competes with the business of Gaussian, Inc. or will provide
 assistance to any competitor of Gaussian, Inc.  The licensee
 of this program is prohibited from giving any competitor of
 Gaussian, Inc. access to this program.  By using this program,
 the user acknowledges that Gaussian, Inc. is engaged in the
 business of creating and licensing software in the field of
 computational chemistry and represents and warrants to the
 licensee that it is not a competitor of Gaussian, Inc. and that
 it will not use this program in any manner prohibited above.
 ---------------------------------------------------------------
  

 Cite this work as:
 Gaussian 16, Revision C.01,
 M. J. Frisch, G. W. Trucks, H. B. Schlegel, G. E. Scuseria, 
 M. A. Robb, J. R. Cheeseman, G. Scalmani, V. Barone, 
 G. A. Petersson, H. Nakatsuji, X. Li, M. Caricato, A. V. Marenich, 
 J. Bloino, B. G. Janesko, R. Gomperts, B. Mennucci, H. P. Hratchian, 
 J. V. Ortiz, A. F. Izmaylov, J. L. Sonnenberg, D. Williams-Young, 
 F. Ding, F. Lipparini, F. Egidi, J. Goings, B. Peng, A. Petrone, 
 T. Henderson, D. Ranasinghe, V. G. Zakrzewski, J. Gao, N. Rega, 
 G. Zheng, W. Liang, M. Hada, M. Ehara, K. Toyota, R. Fukuda, 
 J. Hasegawa, M. Ishida, T. Nakajima, Y. Honda, O. Kitao, H. Nakai, 
 T. Vreven, K. Throssell, J. A. Montgomery, Jr., J. E. Peralta, 
 F. Ogliaro, M. J. Bearpark, J. J. Heyd, E. N. Brothers, K. N. Kudin, 
 V. N. Staroverov, T. A. Keith, R. Kobayashi, J. Normand, 
 K. Raghavachari, A. P. Rendell, J. C. Burant, S. S. Iyengar, 
 J. Tomasi, M. Cossi, J. M. Millam, M. Klene, C. Adamo, R. Cammi, 
 J. W. Ochterski, R. L. Martin, K. Morokuma, O. Farkas, 
 J. B. Foresman, and D. J. Fox, Gaussian, Inc., Wallingford CT, 2019.
 
 ******************************************
 Gaussian 16:  ES64L-G16RevC.01  3-Jul-2019
                31-May-2024 
 ******************************************
 %mem=8000MB
 %nprocshared=2
 Will use up to    2 processors via shared memory.
 ----------------------------------------------------------------------
 # PBE1PBE Def2SVP EmpiricalDispersion=GD3BJ Geom=ModRedun Opt=(loose, 
 maxcycles=10) NoSymm scrf=(smd,solvent=Water)
 ----------------------------------------------------------------------
 1/6=10,7=-1,18=120,19=15,26=3,38=1/1,3;
 2/9=110,12=2,15=1,17=6,18=5,40=1/2;
 3/5=43,7=101,11=2,25=1,30=1,70=32201,71=1,72=1,74=-13,124=41/1,2,3;
 4//1;
 5/5=2,38=5,53=1/2;
 6/7=2,8=2,9=2,10=2,28=1/1;
 7/30=1/1,2,3,16;
 1/6=10,7=-1,18=20,19=15,26=3/3(2);
 2/9=110,15=1/2;
 99//99;
 2/9=110,15=1/2;
 3/5=43,7=101,11=2,25=1,30=1,70=32205,71=1,72=1,74=-13,124=41/1,2,3;
 4/5=5,16=3,69=1/1;
 5/5=2,38=5,53=1/2;
 7/30=1/1,2,3,16;
 1/6=10,7=-1,18=20,19=15,26=3/3(-5);
 2/9=110,15=1/2;
 6/7=2,8=2,9=2,10=2,19=2,28=1/1;
 99/9=1/99;
 -------------------------------------
 TS_dOr2Us_ll_ad_0-5_0-1_conf0_opt_g16
 -------------------------------------
 Symbolic Z-matrix:
 Charge = -1 Multiplicity = 1
 C                     5.38919   0.66637  -1.04984 
 Cl                    6.9963   -0.38175  -1.97611 
 H                     5.06292   1.15478  -1.94473 
 H                     4.87687  -0.21313  -0.71873 
 H                     6.00733   1.20162  -0.35905 
 F                     3.884     1.65017  -0.18243 
 
 Add virtual bond connecting atoms F6         and C1         Dist= 3.77D+00.
 The following ModRedundant input section has been read:
 B       1       2 2.1321 B                                                    
 B       1       2 F                                                           
 B       1       6 1.9961 B                                                    
 B       1       6 F                                                           
 
 Iteration  1 RMS(Cart)=  0.00055843 RMS(Int)=  0.00000000
 Iteration  2 RMS(Cart)=  0.00000000 RMS(Int)=  0.00000000
 Iteration  1 RMS(Cart)=  0.00000000 RMS(Int)=  0.00000000

 GradGradGradGradGradGradGradGradGradGradGradGradGradGradGradGradGradGrad
 Berny optimization.
 Initialization pass.
                           ----------------------------
                           !    Initial Parameters    !
                           ! (Angstroms and Degrees)  !
 --------------------------                            --------------------------
 ! Name  Definition              Value          Derivative Info.                !
 --------------------------------------------------------------------------------
 ! R1    R(1,2)                  2.1322         Frozen                          !
 ! R2    R(1,3)                  1.0704         estimate D2E/DX2                !
 ! R3    R(1,4)                  1.0703         estimate D2E/DX2                !
 ! R4    R(1,5)                  1.0704         estimate D2E/DX2                !
 ! R5    R(1,6)                  1.9961         Frozen                          !
 ! A1    A(2,1,3)               95.2166         estimate D2E/DX2                !
 ! A2    A(2,1,4)               95.2393         estimate D2E/DX2                !
 ! A3    A(2,1,5)               95.2188         estimate D2E/DX2                !
 ! A4    A(3,1,4)              119.1865         estimate D2E/DX2                !
 ! A5    A(3,1,5)              119.1679         estimate D2E/DX2                !
 ! A6    A(3,1,6)               84.755          estimate D2E/DX2                !
 ! A7    A(4,1,5)              119.1868         estimate D2E/DX2                !
 ! A8    A(4,1,6)               84.8155         estimate D2E/DX2                !
 ! A9    A(5,1,6)               84.7548         estimate D2E/DX2                !
 ! A10   L(2,1,6,3,-1)         179.9716         estimate D2E/DX2                !
 ! A11   L(2,1,6,3,-2)         180.0471         estimate D2E/DX2                !
 ! D1    D(2,1,4,3)            -98.9633         estimate D2E/DX2                !
 ! D2    D(2,1,5,3)             98.948          estimate D2E/DX2                !
 ! D3    D(2,1,5,4)            -98.9778         estimate D2E/DX2                !
 ! D4    D(3,1,5,4)            162.0742         estimate D2E/DX2                !
 ! D5    D(3,1,6,4)            120.003          estimate D2E/DX2                !
 ! D6    D(3,1,6,5)           -119.9937         estimate D2E/DX2                !
 ! D7    D(4,1,6,5)            120.0033         estimate D2E/DX2                !
 --------------------------------------------------------------------------------
 Trust Radius=3.00D-01 FncErr=1.00D-07 GrdErr=1.00D-06 EigMax=2.50D+02 EigMin=1.00D-04
 Number of steps in this run=     10 maximum allowed number of steps=    100.
 GradGradGradGradGradGradGradGradGradGradGradGradGradGradGradGradGradGrad

                          Input orientation:                          
 ---------------------------------------------------------------------
 Center     Atomic      Atomic             Coordinates (Angstroms)
 Number     Number       Type             X           Y           Z
 ---------------------------------------------------------------------
      1          6           0        5.388944    0.666524   -1.049703
      2         17           0        6.997249   -0.382371   -1.976658
      3          1           0        5.062681    1.154940   -1.944587
      4          1           0        4.876623   -0.212972   -0.718593
      5          1           0        6.007089    1.201778   -0.358909
      6          9           0        3.884014    1.650161   -0.182439
 ---------------------------------------------------------------------
                    Distance matrix (angstroms):
                    1          2          3          4          5
     1  C    0.000000
     2  Cl   2.132151   0.000000
     3  H    1.070428   2.471216   0.000000
     4  H    1.070336   2.471533   1.846310   0.000000
     5  H    1.070419   2.471246   1.846206   1.846305   0.000000
     6  F    1.996123   4.128274   2.177077   2.178073   2.177071
                    6
     6  F    0.000000
 Symmetry turned off by external request.
 Stoichiometry    CH3ClF(1-)
 Framework group  C1[X(CH3ClF)]
 Deg. of freedom    12
 Full point group                 C1      NOp   1
 Rotational constants (GHZ):         147.1087274           2.3260028           2.3259999
 Standard basis: def2SVP (5D, 7F)
    61 basis functions,   108 primitive gaussians,    64 cartesian basis functions
    18 alpha electrons       18 beta electrons
       nuclear repulsion energy        86.4838519484 Hartrees.
 NAtoms=    6 NActive=    6 NUniq=    6 SFac= 1.00D+00 NAtFMM=   60 NAOKFM=F Big=F
 Integral buffers will be    131072 words long.
 Raffenetti 2 integral format.
 Two-electron integral symmetry is turned off.
 Nuclear repulsion after empirical dispersion term =       86.4814451662 Hartrees.
 ------------------------------------------------------------------------------
 Polarizable Continuum Model (PCM)
 =================================
 Model                : PCM.
 Atomic radii         : SMD-Coulomb.
 Polarization charges : Total charges.
 Charge compensation  : None.
 Solution method      : On-the-fly selection.
 Cavity type          : VdW (van der Waals Surface) (Alpha=1.000).
 Cavity algorithm     : GePol (No added spheres)
                        Default sphere list used, NSphG=    6.
                        Lebedev-Laikov grids with approx.  5.0 points / Ang**2.
                        Smoothing algorithm: York/Karplus (Gamma=1.0000).
                        Polarization charges: spherical gaussians, with
                                              point-specific exponents (IZeta= 3).
                        Self-potential: point-specific (ISelfS= 7).
                        Self-field    : sphere-specific E.n sum rule (ISelfD= 2).
 1st derivatives      : Analytical E(r).r(x)/FMM algorithm (CHGder, D1EAlg=3).
                        Cavity 1st derivative terms included.
 Solvent              : Water, Eps=  78.355300 Eps(inf)=   1.777849
 ------------------------------------------------------------------------------
 Spheres list:
 ISph  on   Nord     Re0    Alpha      Xe            Ye            Ze
    1   C      1    1.8500  1.000      5.388944      0.666524     -1.049703
    2  Cl      2    2.3800  1.000      6.997249     -0.382371     -1.976658
    3   H      3    1.2000  1.000      5.062681      1.154940     -1.944587
    4   H      4    1.2000  1.000      4.876623     -0.212972     -0.718593
    5   H      5    1.2000  1.000      6.007089      1.201778     -0.358909
    6   F      6    1.7300  1.000      3.884014      1.650161     -0.182439
 ------------------------------------------------------------------------------
 ------------------------------------------------------------------------------
 Atomic radii for non-electrostatic terms: SMD-CDS.
 ------------------------------------------------------------------------------
 Nuclear repulsion after PCM non-electrostatic terms =       86.4859156217 Hartrees.
 One-electron integrals computed using PRISM.
   1 Symmetry operations used in ECPInt.
 ECPInt:  NShTT=     435 NPrTT=    1711 LenC2=     430 LenP2D=    1437.
 LDataN:  DoStor=T MaxTD1= 4 Len=   56
 NBasis=    61 RedAO= T EigKep=  1.23D-02  NBF=    61
 NBsUse=    61 1.00D-06 EigRej= -1.00D+00 NBFU=    61
 ExpMin= 1.22D-01 ExpMax= 1.04D+04 ExpMxC= 1.57D+03 IAcc=3 IRadAn=         5 AccDes= 0.00D+00
 Harris functional with IExCor= 1009 and IRadAn=       5 diagonalized for initial guess.
 HarFok:  IExCor= 1009 AccDes= 0.00D+00 IRadAn=         5 IDoV= 1 UseB2=F ITyADJ=14
 ICtDFT=  3500011 ScaDFX=  1.000000  1.000000  1.000000  1.000000
 FoFCou: FMM=F IPFlag=           0 FMFlag=      100000 FMFlg1=           0
         NFxFlg=           0 DoJE=T BraDBF=F KetDBF=T FulRan=T
         wScrn=  0.000000 ICntrl=       500 IOpCl=  0 I1Cent=   200000004 NGrid=           0
         NMat0=    1 NMatS0=      1 NMatT0=    0 NMatD0=    1 NMtDS0=    0 NMtDT0=    0
 Symmetry not used in FoFCou.
 Keep R1 ints in memory in canonical form, NReq=3567974.
 Requested convergence on RMS density matrix=1.00D-08 within 128 cycles.
 Requested convergence on MAX density matrix=1.00D-06.
 Requested convergence on             energy=1.00D-06.
 No special actions if energy rises.
 Inv3:  Mode=1 IEnd=     1674027.
 Iteration    1 A*A^-1 deviation from unit magnitude is 4.00D-15 for    733.
 Iteration    1 A*A^-1 deviation from orthogonality  is 2.17D-15 for    336    146.
 Iteration    1 A^-1*A deviation from unit magnitude is 4.22D-15 for    733.
 Iteration    1 A^-1*A deviation from orthogonality  is 1.27D-15 for    737    582.
 Error on total polarization charges =  0.00697
 SCF Done:  E(RPBE1PBE) =  -599.478199010     A.U. after   11 cycles
            NFock= 11  Conv=0.17D-08     -V/T= 2.0029
 SMD-CDS (non-electrostatic) energy       (kcal/mol) =       2.81
 (included in total energy above)

 **********************************************************************

            Population analysis using the SCF Density.

 **********************************************************************

 Alpha  occ. eigenvalues -- -101.57562 -24.56193 -10.26244  -9.42564  -7.16457
 Alpha  occ. eigenvalues --   -7.15876  -7.15876  -0.95789  -0.75298  -0.65012
 Alpha  occ. eigenvalues --   -0.42640  -0.42638  -0.32667  -0.24996  -0.24996
 Alpha  occ. eigenvalues --   -0.23533  -0.23532  -0.22107
 Alpha virt. eigenvalues --    0.05518   0.11150   0.17210   0.17213   0.47311
 Alpha virt. eigenvalues --    0.47319   0.55683   0.63065   0.71336   0.71343
 Alpha virt. eigenvalues --    0.73663   0.74625   0.87439   0.87440   0.89029
 Alpha virt. eigenvalues --    0.89030   0.94330   0.95305   0.95308   1.20865
 Alpha virt. eigenvalues --    1.20875   1.26866   1.28123   1.40136   1.40149
 Alpha virt. eigenvalues --    1.51193   1.68930   1.72785   1.72787   1.98436
 Alpha virt. eigenvalues --    2.19487   2.19506   2.25558   2.36035   2.36050
 Alpha virt. eigenvalues --    2.92829   2.96470   2.96477   3.27302   3.27302
 Alpha virt. eigenvalues --    3.28179   3.28182   3.36748
          Condensed to atoms (all electrons):
               1          2          3          4          5          6
     1  C    4.538108   0.105456   0.414876   0.414930   0.414875   0.078912
     2  Cl   0.105456  17.530145  -0.026016  -0.025970  -0.026021   0.001151
     3  H    0.414876  -0.026016   0.563385  -0.013323  -0.013324  -0.004347
     4  H    0.414930  -0.025970  -0.013323   0.563089  -0.013317  -0.004368
     5  H    0.414875  -0.026021  -0.013324  -0.013317   0.563435  -0.004338
     6  F    0.078912   0.001151  -0.004347  -0.004368  -0.004338   9.643485
 Mulliken charges:
               1
     1  C    0.032843
     2  Cl  -0.558745
     3  H    0.078748
     4  H    0.078959
     5  H    0.078690
     6  F   -0.710494
 Sum of Mulliken charges =  -1.00000
 Mulliken charges with hydrogens summed into heavy atoms:
               1
     1  C    0.269240
     2  Cl  -0.558745
     6  F   -0.710494
 Electronic spatial extent (au):  <R**2>=           4959.0753
 Charge=             -1.0000 electrons
 Dipole moment (field-independent basis, Debye):
    X=            -25.1465    Y=             -3.6912    Z=              4.6171  Tot=             25.8319
 Quadrupole moment (field-independent basis, Debye-Ang):
   XX=           -172.6894   YY=            -35.0599   ZZ=            -35.2168
   XY=             -9.2935   XZ=             33.0260   YZ=             -2.2332
 Traceless Quadrupole moment (field-independent basis, Debye-Ang):
   XX=            -91.7007   YY=             45.9288   ZZ=             45.7719
   XY=             -9.2935   XZ=             33.0260   YZ=             -2.2332
 Octapole moment (field-independent basis, Debye-Ang**2):
  XXX=          -1391.4820  YYY=            -41.0016  ZZZ=            123.9942  XYY=           -188.1480
  XXY=            -12.8047  XXZ=            272.0164  XZZ=           -220.6575  YZZ=             -2.8593
  YYZ=             36.4132  XYZ=            -16.0053
 Hexadecapole moment (field-independent basis, Debye-Ang**3):
 XXXX=         -11939.9940 YYYY=           -176.4872 ZZZZ=           -431.6529 XXXY=            111.2930
 XXXZ=           2382.5603 YYYX=           -131.9315 YYYZ=             -8.1270 ZZZX=            825.6414
 ZZZY=            -21.4865 XXYY=          -1108.0467 XXZZ=          -1498.5001 YYZZ=            -89.7504
 XXYZ=           -111.0259 YYXZ=            235.5517 ZZXY=              9.9680
 N-N= 8.648591562169D+01 E-N=-1.607504083359D+03  KE= 5.977585950138D+02
   1 Symmetry operations used in ECPInt.
 ECPInt:  NShTT=     435 NPrTT=    1711 LenC2=     430 LenP2D=    1437.
 LDataN:  DoStor=T MaxTD1= 5 Len=  102
 D1PCM: PCM CHGder 1st derivatives, ID1Alg=3 FixD1E=F DoIter=F DoCFld=F I1PDM=0.
 Calling FoFJK, ICntrl=      2127 FMM=F ISym2X=0 I1Cent= 0 IOpClX= 0 NMat=1 NMatS=1 NMatT=0.
 -------------------------------------------------------------------
 Center     Atomic                   Forces (Hartrees/Bohr)
 Number     Number              X              Y              Z
 -------------------------------------------------------------------
      1        6           0.001933097   -0.001026258   -0.001130554
      2       17           0.000478347   -0.000316763   -0.000258686
      3        1          -0.003186546    0.004513459   -0.007910411
      4        1          -0.004962938   -0.007835202    0.003206691
      5        1           0.005306074    0.004980420    0.006333800
      6        9           0.000431966   -0.000315655   -0.000240840
 -------------------------------------------------------------------
 Cartesian Forces:  Max     0.007910411 RMS     0.004008938

 GradGradGradGradGradGradGradGradGradGradGradGradGradGradGradGradGradGrad
 Berny optimization.
 FormGI is forming the generalized inverse of G from B-inverse, IUseBI=4.
 Internal  Forces:  Max     0.009805635 RMS     0.003508017
 Search for a local minimum.
 Step number   1 out of a maximum of   10
 All quantities printed in internal units (Hartrees-Bohrs-Radians)
 Mixed Optimization -- RFO/linear search
 Second derivative matrix not updated -- first step.
 ITU=  0
     Eigenvalues ---    0.04014   0.04994   0.06477   0.07653   0.07703
     Eigenvalues ---    0.11825   0.14169   0.37176   0.37177   0.37188
     Eigenvalues --- 1000.000001000.000001000.000001000.000001000.00000
     Eigenvalues --- 1000.000001000.000001000.000001000.000001000.00000
     Eigenvalues --- 1000.000001000.000001000.00000
 RFO step:  Lambda=-7.61157195D-04 EMin= 4.01441923D-02
 Linear search not attempted -- first point.
 Iteration  1 RMS(Cart)=  0.00937357 RMS(Int)=  0.00002569
 Iteration  2 RMS(Cart)=  0.00001284 RMS(Int)=  0.00000219
 Iteration  3 RMS(Cart)=  0.00000000 RMS(Int)=  0.00000219
 Iteration  1 RMS(Cart)=  0.00000000 RMS(Int)=  0.00000000
 Variable       Old X    -DE/DX   Delta X   Delta X   Delta X     New X
                                 (Linear)    (Quad)   (Total)
    R1        4.02918   0.00063   0.00000   0.00000   0.00000   4.02918
    R2        2.02282   0.00964   0.00000   0.02589   0.02589   2.04870
    R3        2.02264   0.00981   0.00000   0.02631   0.02631   2.04896
    R4        2.02280   0.00964   0.00000   0.02588   0.02588   2.04868
    R5        3.77213  -0.00059   0.00000   0.00000   0.00000   3.77213
    A1        1.66184   0.00005   0.00000   0.00189   0.00189   1.66373
    A2        1.66224   0.00009   0.00000   0.00182   0.00182   1.66406
    A3        1.66188   0.00011   0.00000   0.00182   0.00182   1.66370
    A4        2.08020  -0.00001   0.00000  -0.00062  -0.00063   2.07957
    A5        2.07987  -0.00002   0.00000  -0.00051  -0.00052   2.07936
    A6        1.47925  -0.00002   0.00000  -0.00138  -0.00138   1.47787
    A7        2.08020  -0.00004   0.00000  -0.00059  -0.00059   2.07961
    A8        1.48031  -0.00014   0.00000  -0.00242  -0.00242   1.47789
    A9        1.47925  -0.00008   0.00000  -0.00172  -0.00173   1.47752
   A10        3.14110   0.00003   0.00000   0.00051   0.00051   3.14160
   A11        3.14241  -0.00005   0.00000  -0.00040  -0.00040   3.14201
    D1       -1.72723  -0.00010   0.00000  -0.00313  -0.00313  -1.73037
    D2        1.72697   0.00012   0.00000   0.00315   0.00315   1.73012
    D3       -1.72749  -0.00016   0.00000  -0.00306  -0.00306  -1.73054
    D4        2.82873  -0.00027   0.00000  -0.00621  -0.00621   2.82252
    D5        2.09445   0.00001   0.00000  -0.00003  -0.00003   2.09441
    D6       -2.09429   0.00001   0.00000   0.00002   0.00003  -2.09426
    D7        2.09445  -0.00001   0.00000   0.00006   0.00006   2.09451
         Item               Value     Threshold  Converged?
 Maximum Force            0.009806     0.002500     NO 
 RMS     Force            0.003666     0.001667     NO 
 Maximum Displacement     0.021452     0.010000     NO 
 RMS     Displacement     0.009373     0.006667     NO 
 Predicted change in Energy=-3.813856D-04
 GradGradGradGradGradGradGradGradGradGradGradGradGradGradGradGradGradGrad

                          Input orientation:                          
 ---------------------------------------------------------------------
 Center     Atomic      Atomic             Coordinates (Angstroms)
 Number     Number       Type             X           Y           Z
 ---------------------------------------------------------------------
      1          6           0        5.390229    0.665934   -1.050538
      2         17           0        6.998436   -0.383388   -1.977179
      3          1           0        5.058437    1.161409   -1.955939
      4          1           0        4.869647   -0.223736   -0.714229
      5          1           0        6.014711    1.208900   -0.350170
      6          9           0        3.885140    1.648941   -0.182835
 ---------------------------------------------------------------------
                    Distance matrix (angstroms):
                    1          2          3          4          5
     1  C    0.000000
     2  Cl   2.132151   0.000000
     3  H    1.084128   2.480009   0.000000
     4  H    1.084261   2.480378   1.869789   0.000000
     5  H    1.084115   2.479970   1.869548   1.869801   0.000000
     6  F    1.996123   4.128274   2.181333   2.181411   2.180989
                    6
     6  F    0.000000
 Symmetry turned off by external request.
 Stoichiometry    CH3ClF(1-)
 Framework group  C1[X(CH3ClF)]
 Deg. of freedom    12
 Full point group                 C1      NOp   1
 Rotational constants (GHZ):         143.4438483           2.3254032           2.3253965
 Standard basis: def2SVP (5D, 7F)
    61 basis functions,   108 primitive gaussians,    64 cartesian basis functions
    18 alpha electrons       18 beta electrons
       nuclear repulsion energy        86.3097829224 Hartrees.
 NAtoms=    6 NActive=    6 NUniq=    6 SFac= 1.00D+00 NAtFMM=   60 NAOKFM=F Big=F
 Integral buffers will be    131072 words long.
 Raffenetti 2 integral format.
 Two-electron integral symmetry is turned off.
 Nuclear repulsion after empirical dispersion term =       86.3073776142 Hartrees.
 ------------------------------------------------------------------------------
 Polarizable Continuum Model (PCM)
 =================================
 Model                : PCM.
 Atomic radii         : SMD-Coulomb.
 Polarization charges : Total charges.
 Charge compensation  : None.
 Solution method      : On-the-fly selection.
 Cavity type          : VdW (van der Waals Surface) (Alpha=1.000).
 Cavity algorithm     : GePol (No added spheres)
                        Default sphere list used, NSphG=    6.
                        Lebedev-Laikov grids with approx.  5.0 points / Ang**2.
                        Smoothing algorithm: York/Karplus (Gamma=1.0000).
                        Polarization charges: spherical gaussians, with
                                              point-specific exponents (IZeta= 3).
                        Self-potential: point-specific (ISelfS= 7).
                        Self-field    : sphere-specific E.n sum rule (ISelfD= 2).
 1st derivatives      : Analytical E(r).r(x)/FMM algorithm (CHGder, D1EAlg=3).
                        Cavity 1st derivative terms included.
 Solvent              : Water, Eps=  78.355300 Eps(inf)=   1.777849
 ------------------------------------------------------------------------------
 Spheres list:
 ISph  on   Nord     Re0    Alpha      Xe            Ye            Ze
    1   C      1    1.8500  1.000      5.390229      0.665934     -1.050538
    2  Cl      2    2.3800  1.000      6.998436     -0.383388     -1.977179
    3   H      3    1.2000  1.000      5.058437      1.161409     -1.955939
    4   H      4    1.2000  1.000      4.869647     -0.223736     -0.714229
    5   H      5    1.2000  1.000      6.014711      1.208900     -0.350170
    6   F      6    1.7300  1.000      3.885140      1.648941     -0.182835
 ------------------------------------------------------------------------------
 ------------------------------------------------------------------------------
 Atomic radii for non-electrostatic terms: SMD-CDS.
 ------------------------------------------------------------------------------
 Nuclear repulsion after PCM non-electrostatic terms =       86.3118436537 Hartrees.
 One-electron integrals computed using PRISM.
   1 Symmetry operations used in ECPInt.
 ECPInt:  NShTT=     435 NPrTT=    1711 LenC2=     430 LenP2D=    1437.
 LDataN:  DoStor=T MaxTD1= 4 Len=   56
 NBasis=    61 RedAO= T EigKep=  1.27D-02  NBF=    61
 NBsUse=    61 1.00D-06 EigRej= -1.00D+00 NBFU=    61
 Initial guess from the checkpoint file:  "/home/thijs/scratch/Gau-2620893.chk"
 B after Tr=     0.001884   -0.001818   -0.000812
         Rot=    1.000000   -0.000007   -0.000002   -0.000010 Ang=  -0.00 deg.
 ExpMin= 1.22D-01 ExpMax= 1.04D+04 ExpMxC= 1.57D+03 IAcc=3 IRadAn=         5 AccDes= 0.00D+00
 Harris functional with IExCor= 1009 and IRadAn=       5 diagonalized for initial guess.
 HarFok:  IExCor= 1009 AccDes= 0.00D+00 IRadAn=         5 IDoV= 1 UseB2=F ITyADJ=14
 ICtDFT=  3500011 ScaDFX=  1.000000  1.000000  1.000000  1.000000
 FoFCou: FMM=F IPFlag=           0 FMFlag=      100000 FMFlg1=           0
         NFxFlg=           0 DoJE=T BraDBF=F KetDBF=T FulRan=T
         wScrn=  0.000000 ICntrl=       500 IOpCl=  0 I1Cent=   200000004 NGrid=           0
         NMat0=    1 NMatS0=      1 NMatT0=    0 NMatD0=    1 NMtDS0=    0 NMtDT0=    0
 Symmetry not used in FoFCou.
 Keep R1 ints in memory in canonical form, NReq=3567974.
 Requested convergence on RMS density matrix=1.00D-08 within 128 cycles.
 Requested convergence on MAX density matrix=1.00D-06.
 Requested convergence on             energy=1.00D-06.
 No special actions if energy rises.
 Inv3:  Mode=1 IEnd=     1678512.
 Iteration    1 A*A^-1 deviation from unit magnitude is 2.89D-15 for    742.
 Iteration    1 A*A^-1 deviation from orthogonality  is 2.00D-15 for    348      5.
 Iteration    1 A^-1*A deviation from unit magnitude is 2.44D-15 for    742.
 Iteration    1 A^-1*A deviation from orthogonality  is 9.44D-16 for    645     51.
 Error on total polarization charges =  0.00713
 SCF Done:  E(RPBE1PBE) =  -599.478550515     A.U. after    9 cycles
            NFock=  9  Conv=0.30D-08     -V/T= 2.0030
 SMD-CDS (non-electrostatic) energy       (kcal/mol) =       2.80
 (included in total energy above)
   1 Symmetry operations used in ECPInt.
 ECPInt:  NShTT=     435 NPrTT=    1711 LenC2=     430 LenP2D=    1437.
 LDataN:  DoStor=T MaxTD1= 5 Len=  102
 D1PCM: PCM CHGder 1st derivatives, ID1Alg=3 FixD1E=F DoIter=F DoCFld=F I1PDM=0.
 Calling FoFJK, ICntrl=      2127 FMM=F ISym2X=0 I1Cent= 0 IOpClX= 0 NMat=1 NMatS=1 NMatT=0.
 -------------------------------------------------------------------
 Center     Atomic                   Forces (Hartrees/Bohr)
 Number     Number              X              Y              Z
 -------------------------------------------------------------------
      1        6          -0.000178073    0.000119542    0.000111454
      2       17           0.000357868   -0.000226898   -0.000193901
      3        1           0.000011890   -0.000209063    0.000634817
      4        1           0.000127511    0.000699419   -0.000073129
      5        1          -0.000547531   -0.000212204   -0.000351776
      6        9           0.000228336   -0.000170796   -0.000127466
 -------------------------------------------------------------------
 Cartesian Forces:  Max     0.000699419 RMS     0.000316169

 GradGradGradGradGradGradGradGradGradGradGradGradGradGradGradGradGradGrad
 Berny optimization.
 Using GEDIIS/GDIIS optimizer.
 FormGI is forming the generalized inverse of G from B-inverse, IUseBI=4.
 Internal  Forces:  Max     0.000657848 RMS     0.000268064
 Search for a local minimum.
 Step number   2 out of a maximum of   10
 All quantities printed in internal units (Hartrees-Bohrs-Radians)
 Mixed Optimization -- En-DIIS/RFO-DIIS
 Update second derivatives using D2CorX and points    1    2
 DE= -3.52D-04 DEPred=-3.81D-04 R= 9.22D-01
 TightC=F SS=  1.41D+00  RLast= 4.61D-02 DXNew= 5.0454D-01 1.3821D-01
 Trust test= 9.22D-01 RLast= 4.61D-02 DXMaxT set to 3.00D-01
 ITU=  1  0
 Use linear search instead of GDIIS.
     Eigenvalues ---    0.03999   0.04991   0.06473   0.07637   0.07688
     Eigenvalues ---    0.11839   0.14179   0.37176   0.37184   0.39881
     Eigenvalues --- 1000.000001000.000001000.000001000.000001000.00000
     Eigenvalues --- 1000.000001000.000001000.000001000.000001000.00000
     Eigenvalues --- 1000.000001000.000001000.00000
 RFO step:  Lambda=-1.99990916D-06 EMin= 3.99898234D-02
 Quartic linear search produced a step of -0.06111.
 Iteration  1 RMS(Cart)=  0.00090986 RMS(Int)=  0.00000117
 Iteration  2 RMS(Cart)=  0.00000076 RMS(Int)=  0.00000082
 Iteration  1 RMS(Cart)=  0.00000000 RMS(Int)=  0.00000000
 Variable       Old X    -DE/DX   Delta X   Delta X   Delta X     New X
                                 (Linear)    (Quad)   (Total)
    R1        4.02918   0.00047   0.00000   0.00000   0.00000   4.02918
    R2        2.04870  -0.00063  -0.00158   0.00001  -0.00158   2.04713
    R3        2.04896  -0.00066  -0.00161  -0.00004  -0.00165   2.04731
    R4        2.04868  -0.00065  -0.00158  -0.00004  -0.00163   2.04705
    R5        3.77213  -0.00031   0.00000   0.00000   0.00000   3.77213
    A1        1.66373   0.00004  -0.00012   0.00135   0.00124   1.66497
    A2        1.66406   0.00007  -0.00011   0.00143   0.00132   1.66538
    A3        1.66370   0.00007  -0.00011   0.00121   0.00110   1.66480
    A4        2.07957  -0.00001   0.00004  -0.00044  -0.00041   2.07916
    A5        2.07936  -0.00002   0.00003  -0.00039  -0.00037   2.07899
    A6        1.47787  -0.00002   0.00008  -0.00107  -0.00099   1.47688
    A7        2.07961  -0.00003   0.00004  -0.00043  -0.00040   2.07921
    A8        1.47789  -0.00010   0.00015  -0.00171  -0.00156   1.47633
    A9        1.47752  -0.00005   0.00011  -0.00122  -0.00111   1.47641
   A10        3.14160   0.00001  -0.00003   0.00028   0.00025   3.14185
   A11        3.14201  -0.00002   0.00002  -0.00016  -0.00013   3.14188
    D1       -1.73037  -0.00008   0.00019  -0.00231  -0.00212  -1.73249
    D2        1.73012   0.00008  -0.00019   0.00220   0.00200   1.73213
    D3       -1.73054  -0.00012   0.00019  -0.00228  -0.00210  -1.73264
    D4        2.82252  -0.00019   0.00038  -0.00448  -0.00410   2.81842
    D5        2.09441   0.00001   0.00000  -0.00000  -0.00000   2.09441
    D6       -2.09426   0.00000  -0.00000   0.00003   0.00003  -2.09423
    D7        2.09451  -0.00001  -0.00000   0.00004   0.00003   2.09454
         Item               Value     Threshold  Converged?
 Maximum Force            0.000658     0.002500     YES
 RMS     Force            0.000252     0.001667     YES
 Maximum Displacement     0.002525     0.010000     YES
 RMS     Displacement     0.000910     0.006667     YES
 Predicted change in Energy=-2.452941D-06
 Optimization completed.
    -- Stationary point found.
                           ----------------------------
                           !   Optimized Parameters   !
                           ! (Angstroms and Degrees)  !
 --------------------------                            --------------------------
 ! Name  Definition              Value          Derivative Info.                !
 --------------------------------------------------------------------------------
 ! R1    R(1,2)                  2.1322         -DE/DX =    0.0005              !
 ! R2    R(1,3)                  1.0841         -DE/DX =   -0.0006              !
 ! R3    R(1,4)                  1.0843         -DE/DX =   -0.0007              !
 ! R4    R(1,5)                  1.0841         -DE/DX =   -0.0006              !
 ! R5    R(1,6)                  1.9961         -DE/DX =   -0.0003              !
 ! A1    A(2,1,3)               95.325          -DE/DX =    0.0                 !
 ! A2    A(2,1,4)               95.3435         -DE/DX =    0.0001              !
 ! A3    A(2,1,5)               95.323          -DE/DX =    0.0001              !
 ! A4    A(3,1,4)              119.1503         -DE/DX =    0.0                 !
 ! A5    A(3,1,5)              119.1383         -DE/DX =    0.0                 !
 ! A6    A(3,1,6)               84.6756         -DE/DX =    0.0                 !
 ! A7    A(4,1,5)              119.1528         -DE/DX =    0.0                 !
 ! A8    A(4,1,6)               84.6769         -DE/DX =   -0.0001              !
 ! A9    A(5,1,6)               84.6559         -DE/DX =   -0.0001              !
 ! A10   L(2,1,6,3,-1)         180.0006         -DE/DX =    0.0                 !
 ! A11   L(2,1,6,3,-2)         180.0241         -DE/DX =    0.0                 !
 ! D1    D(2,1,4,3)            -99.1428         -DE/DX =   -0.0001              !
 ! D2    D(2,1,5,3)             99.1287         -DE/DX =    0.0001              !
 ! D3    D(2,1,5,4)            -99.1528         -DE/DX =   -0.0001              !
 ! D4    D(3,1,5,4)            161.7185         -DE/DX =   -0.0002              !
 ! D5    D(3,1,6,4)            120.0011         -DE/DX =    0.0                 !
 ! D6    D(3,1,6,5)           -119.9922         -DE/DX =    0.0                 !
 ! D7    D(4,1,6,5)            120.0067         -DE/DX =    0.0                 !
 --------------------------------------------------------------------------------
 GradGradGradGradGradGradGradGradGradGradGradGradGradGradGradGradGradGrad

                          Input orientation:                          
 ---------------------------------------------------------------------
 Center     Atomic      Atomic             Coordinates (Angstroms)
 Number     Number       Type             X           Y           Z
 ---------------------------------------------------------------------
      1          6           0        5.390229    0.665934   -1.050538
      2         17           0        6.998436   -0.383388   -1.977179
      3          1           0        5.058437    1.161409   -1.955939
      4          1           0        4.869647   -0.223736   -0.714229
      5          1           0        6.014711    1.208900   -0.350170
      6          9           0        3.885140    1.648941   -0.182835
 ---------------------------------------------------------------------
                    Distance matrix (angstroms):
                    1          2          3          4          5
     1  C    0.000000
     2  Cl   2.132151   0.000000
     3  H    1.084128   2.480009   0.000000
     4  H    1.084261   2.480378   1.869789   0.000000
     5  H    1.084115   2.479970   1.869548   1.869801   0.000000
     6  F    1.996123   4.128274   2.181333   2.181411   2.180989
                    6
     6  F    0.000000
 Symmetry turned off by external request.
 Stoichiometry    CH3ClF(1-)
 Framework group  C1[X(CH3ClF)]
 Deg. of freedom    12
 Full point group                 C1      NOp   1
 Rotational constants (GHZ):         143.4438483           2.3254032           2.3253965

 **********************************************************************

            Population analysis using the SCF Density.

 **********************************************************************

 Alpha  occ. eigenvalues -- -101.57566 -24.56162 -10.26620  -9.42567  -7.16461
 Alpha  occ. eigenvalues --   -7.15879  -7.15879  -0.95761  -0.75203  -0.64711
 Alpha  occ. eigenvalues --   -0.42326  -0.42322  -0.32658  -0.24990  -0.24989
 Alpha  occ. eigenvalues --   -0.23490  -0.23489  -0.22068
 Alpha virt. eigenvalues --    0.05491   0.10921   0.16939   0.16941   0.47435
 Alpha virt. eigenvalues --    0.47442   0.55434   0.62370   0.70560   0.70562
 Alpha virt. eigenvalues --    0.73501   0.74668   0.87459   0.87461   0.89004
 Alpha virt. eigenvalues --    0.89005   0.94089   0.95300   0.95303   1.20776
 Alpha virt. eigenvalues --    1.20781   1.26760   1.27840   1.40131   1.40134
 Alpha virt. eigenvalues --    1.50450   1.68545   1.71859   1.71870   1.97673
 Alpha virt. eigenvalues --    2.17481   2.17486   2.24998   2.34015   2.34023
 Alpha virt. eigenvalues --    2.89151   2.93876   2.93893   3.27322   3.27323
 Alpha virt. eigenvalues --    3.28197   3.28198   3.36708
          Condensed to atoms (all electrons):
               1          2          3          4          5          6
     1  C    4.565471   0.104892   0.411940   0.411930   0.411931   0.078715
     2  Cl   0.104892  17.530607  -0.026426  -0.026417  -0.026444   0.001153
     3  H    0.411940  -0.026426   0.561845  -0.013417  -0.013423  -0.004726
     4  H    0.411930  -0.026417  -0.013417   0.561588  -0.013404  -0.004730
     5  H    0.411931  -0.026444  -0.013423  -0.013404   0.561910  -0.004712
     6  F    0.078715   0.001153  -0.004726  -0.004730  -0.004712   9.644857
 Mulliken charges:
               1
     1  C    0.015121
     2  Cl  -0.557363
     3  H    0.084207
     4  H    0.084451
     5  H    0.084142
     6  F   -0.710557
 Sum of Mulliken charges =  -1.00000
 Mulliken charges with hydrogens summed into heavy atoms:
               1
     1  C    0.267920
     2  Cl  -0.557363
     6  F   -0.710557
 Electronic spatial extent (au):  <R**2>=           4960.9647
 Charge=             -1.0000 electrons
 Dipole moment (field-independent basis, Debye):
    X=            -25.1497    Y=             -3.6863    Z=              4.6175  Tot=             25.8344
 Quadrupole moment (field-independent basis, Debye-Ang):
   XX=           -172.7451   YY=            -35.0669   ZZ=            -35.2327
   XY=             -9.2648   XZ=             33.0374   YZ=             -2.2412
 Traceless Quadrupole moment (field-independent basis, Debye-Ang):
   XX=            -91.7302   YY=             45.9480   ZZ=             45.7822
   XY=             -9.2648   XZ=             33.0374   YZ=             -2.2412
 Octapole moment (field-independent basis, Debye-Ang**2):
  XXX=          -1392.1932  YYY=            -40.9698  ZZZ=            124.0580  XYY=           -188.2382
  XXY=            -12.6050  XXZ=            272.1877  XZZ=           -220.7899  YZZ=             -2.8054
  YYZ=             36.4486  XYZ=            -16.0337
 Hexadecapole moment (field-independent basis, Debye-Ang**3):
 XXXX=         -11948.0004 YYYY=           -176.6833 ZZZZ=           -432.0969 XXXY=            112.7342
 XXXZ=           2384.5038 YYYX=           -131.8405 YYYZ=             -8.1132 ZZZX=            826.1351
 ZZZY=            -21.6405 XXYY=          -1108.8468 XXZZ=          -1499.6627 YYZZ=            -89.8386
 XXYZ=           -111.1056 YYXZ=            235.8166 ZZXY=             10.2114
 N-N= 8.631184365368D+01 E-N=-1.607126150864D+03  KE= 5.977028928374D+02
 Unable to Open any file for archive entry.
 1\1\GINC-DALE\FOpt\RPBE1PBE\def2SVP\C1H3Cl1F1(1-)\THIJS\31-May-2024\0\
 \# PBE1PBE Def2SVP EmpiricalDispersion=GD3BJ Geom=ModRedun Opt=(loose,
  maxcycles=10) NoSymm scrf=(smd,solvent=Water)\\TS_dOr2Us_ll_ad_0-5_0-
 1_conf0_opt_g16\\-1,1\C,5.3902289394,0.6659338123,-1.0505379457\Cl,6.9
 984357579,-0.3833884197,-1.9771785519\H,5.0584373686,1.1614088646,-1.9
 55939394\H,4.8696465905,-0.2237356991,-0.7142294035\H,6.0147113779,1.2
 088999588,-0.3501699892\F,3.8851399557,1.6489414931,-0.1828347157\\Ver
 sion=ES64L-G16RevC.01\HF=-599.4785505\RMSD=2.952e-09\RMSF=3.162e-04\Di
 pole=1.0238456,-0.6693021,-0.5903742\Quadrupole=-68.1991223,34.1611759
 ,34.0379464,-6.8881478,24.5625177,-1.6662463\PG=C01 [X(C1H3Cl1F1)]\\@
 The archive entry for this job was punched.


 BE NOT THE FIRST BY WHOM THE NEW ARE TRIED,
 NOR YET THE THE LAST TO LAY THE OLD ASIDE.

                          -- ALEXANDER POPE
 Job cpu time:       0 days  0 hours  0 minutes 38.5 seconds.
 Elapsed time:       0 days  0 hours  0 minutes 25.7 seconds.
 File lengths (MBytes):  RWF=     16 Int=      0 D2E=      0 Chk=      3 Scr=      1
 Normal termination of Gaussian 16 at Fri May 31 17:50:45 2024.
