      -----------------------------------------------------------      
     |                   =====================                   |     
     |                           x T B                           |     
     |                   =====================                   |     
     |                         S. Grimme                         |     
     |          Mulliken Center for Theoretical Chemistry        |     
     |                    University of Bonn                     |     
      -----------------------------------------------------------      

   * xtb version 6.3.3 (71d3805) compiled by 'conda@b85dec0bf610' on 2021-01-07

   xtb is free software: you can redistribute it and/or modify it under
   the terms of the GNU Lesser General Public License as published by
   the Free Software Foundation, either version 3 of the License, or
   (at your option) any later version.
   
   xtb is distributed in the hope that it will be useful,
   but WITHOUT ANY WARRANTY; without even the implied warranty of
   MERCHANTABILITY or FITNESS FOR A PARTICULAR PURPOSE.  See the
   GNU Lesser General Public License for more details.
   
   Cite this work as:
   * C. Bannwarth, E. Caldeweyher, S. Ehlert, A. Hansen, P. Pracht,
     J. Seibert, S. Spicher, S. Grimme, WIREs Comput. Mol. Sci., 2020,
     e01493. DOI: 10.1002/wcms.1493
   
   for GFN2-xTB:
   * S. Grimme, C. Bannwarth, P. Shushkov, J. Chem. Theory Comput., 2017,
     13, 1989-2009. DOI: 10.1021/acs.jctc.7b00118
   for GFN1-xTB:
   * C. Bannwarth, S. Ehlert and S. Grimme., J. Chem. Theory Comput., 2019,
     15, 1652-1671. DOI: 10.1021/acs.jctc.8b01176
   for GFN0-xTB:
   * P. Pracht, E. Caldeweyher, S. Ehlert, S. Grimme, ChemRxiv, 2019, preprint.
     DOI: 10.26434/chemrxiv.8326202.v1
   for GFN-FF:
   * S. Spicher and S. Grimme, Angew. Chem. Int. Ed., 2020, 59, 15665-15673.
     DOI: 10.1002/anie.202004239
   
   for DFT-D4:
   * E. Caldeweyher, C. Bannwarth and S. Grimme, J. Chem. Phys., 2017,
     147, 034112. DOI: 10.1063/1.4993215
   * E. Caldeweyher, S. Ehlert, A. Hansen, H. Neugebauer, S. Spicher,
     C. Bannwarth and S. Grimme, J. Chem. Phys., 2019, 150, 154122.
     DOI: 10.1063/1.5090222
   * E. Caldeweyher, J.-M. Mewes, S. Ehlert and S. Grimme, Phys. Chem. Chem. Phys.
     2020, 22, 8499-8512. DOI: 10.1039/D0CP00502A
   
   for sTDA-xTB:
   * S. Grimme and C. Bannwarth, J. Chem. Phys., 2016, 145, 054103.
     DOI: 10.1063/1.4959605
   
   in the mass-spec context:
   * V. Asgeirsson, C. Bauer and S. Grimme, Chem. Sci., 2017, 8, 4879.
     DOI: 10.1039/c7sc00601b
   * J. Koopman and S. Grimme, ACS Omega 2019, 4, 12, 15120-15133.
     DOI: 10.1021/acsomega.9b02011
   
   for metadynamics refer to:
   * S. Grimme, J. Chem. Theory Comput., 2019, 155, 2847-2862
     DOI: 10.1021/acs.jctc.9b00143
   
   with help from (in alphabetical order)
   C. Bannwarth, F. Bohle, G. Brandenburg, E. Caldeweyher, M. Checinski,
   S. Dohm, S. Ehlert, S. Ehrlich, F. März, H. Neugebauer, J. Pisarek,
   P. Pracht, P. Shushkov, and S. Spicher.
   
 * started run on 2024/05/31 at 17:50:19.860     

           -------------------------------------------------
          |                Calculation Setup                |
           -------------------------------------------------

          program call               : /home/thijs/miniconda3/envs/ts-tools/bin/xtb TS_dOr2Us_ll_ad_0-5_0-1_conf299_opt_xtb.xyz --chrg -1 --uhf 0 --opt --gbsa Water --input xcontrol_TS_dOr2Us_ll_ad_0-5_0-1_conf299_opt_xtb
          hostname                   : dale
          coordinate file            : TS_dOr2Us_ll_ad_0-5_0-1_conf299_opt_xtb.xyz
          omp threads                :                     2
          number of atoms            :                     6
          number of electrons        :                    22
          charge                     :                    -1
          spin                       :                   0.0
          first test random number   :      0.36055095324900

   ID    Z sym.   atoms
    1    6 C      1
    2   17 Cl     2
    3    1 H      3-5
    4    9 F      6
constraining bond 1 2 to    2.1322000 Å, actual value:    2.1321699 Å
constraining bond 1 6 to    1.9961000 Å, actual value:    1.9961361 Å

molecular fragmentation (1/2 indicates fragments):
111112
# atoms in fragment 1/2:     5     1
 fragment masses (1/2) :       50.49       19.00
CMA distance (Bohr)    :   3.790
constraining FC (au)   :  2.0000

           -------------------------------------------------
          |                 G F N 2 - x T B                 |
           -------------------------------------------------

        Reference                      10.1021/acs.jctc.8b01176
      * Hamiltonian:
        H0-scaling (s, p, d)           1.850000    2.230000    2.230000
        zeta-weighting                 0.500000
      * Dispersion:
        s8                             2.700000
        a1                             0.520000
        a2                             5.000000
        s9                             5.000000
      * Repulsion:
        kExp                           1.500000    1.000000
        rExp                           1.000000
      * Coulomb:
        alpha                          2.000000
        third order                    shell-resolved
        anisotropic                    true
        a3                             3.000000
        a5                             4.000000
        cn-shift                       1.200000
        cn-exp                         4.000000
        max-rad                        5.000000

      * Solvation model:               GBSA
        Solvent                        Water
        Parameter file                 internal GFN2-xTB/GBSA
        Dielectric constant                8.0200E+01
        Reference state                gsolv [1 M gas/solution]
        Free energy shift                  1.8574E-03 Eh       1.1656E+00 kcal/mol
        Temperature                        2.9815E+02 K
        Density                            1.0000E+00 kg/L
        Solvent mass                       1.8000E+01 g/mol
        Interaction kernel             Still
        Born radius scaling (c1)           1.5524E+00
        Born radii integrator          GBOBC
        Born offset                        2.4628E-02 a0       4.6540E-02 AA
        H-bond correction              true
        Ion screening                  false
        Surface tension                    1.0000E-05 Eh       1.5569E+01 dyn/cm
        Grid points                               230 per atom

          ...................................................
          :                      SETUP                      :
          :.................................................:
          :  # basis functions                  21          :
          :  # atomic orbitals                  20          :
          :  # shells                           10          :
          :  # electrons                        22          :
          :  max. iterations                   250          :
          :  Hamiltonian                  GFN2-xTB          :
          :  restarted?                      false          :
          :  GBSA solvation                   true          :
          :  PC potential                    false          :
          :  electronic temp.          300.0000000     K    :
          :  accuracy                    1.0000000          :
          :  -> integral cutoff          0.2500000E+02      :
          :  -> integral neglect         0.1000000E-07      :
          :  -> SCF convergence          0.1000000E-05 Eh   :
          :  -> wf. convergence          0.1000000E-03 e    :
          :  Broyden damping             0.4000000          :
          ...................................................

 iter      E             dE          RMSdq      gap      omega  full diag
   1    -13.0554662 -0.130555E+02  0.756E+00    4.27       0.0  T
   2    -13.1874350 -0.131969E+00  0.345E+00    1.66       1.0  T
   3    -13.2129681 -0.255331E-01  0.206E+00    2.48       1.0  T
   4    -13.2156098 -0.264175E-02  0.695E-01    2.13       1.0  T
   5    -13.2169724 -0.136257E-02  0.385E-01    2.30       1.0  T
   6    -13.2173047 -0.332297E-03  0.160E-01    2.24       1.0  T
   7    -13.2173485 -0.437995E-04  0.943E-02    2.25       1.0  T
   8    -13.2173690 -0.205152E-04  0.181E-02    2.27       2.3  T
   9    -13.2173696 -0.558240E-06  0.119E-02    2.27       3.4  T
  10    -13.2173700 -0.455677E-06  0.252E-03    2.26      16.2  T
  11    -13.2173701 -0.117643E-07  0.142E-03    2.26      28.7  T
  12    -13.2173701 -0.116769E-08  0.217E-04    2.26     187.7  T
  13    -13.2173701 -0.147514E-09  0.489E-05    2.26     835.7  T

   *** convergence criteria satisfied after 13 iterations ***

         #    Occupation            Energy/Eh            Energy/eV
      -------------------------------------------------------------
         1        2.0000           -1.0119778             -27.5373
       ...           ...                  ...                  ...
         5        2.0000           -0.4918294             -13.3834
         6        2.0000           -0.4289000             -11.6710
         7        2.0000           -0.3933991             -10.7049
         8        2.0000           -0.3847555             -10.4697
         9        2.0000           -0.3767079             -10.2507
        10        2.0000           -0.3612192              -9.8293
        11        2.0000           -0.3457539              -9.4084 (HOMO)
        12                         -0.2625413              -7.1441 (LUMO)
        13                          0.0770096               2.0955
        14                          0.0842906               2.2937
        15                          0.0887563               2.4152
        16                          0.0950139               2.5855
       ...                                ...                  ...
        20                          0.2698688               7.3435
      -------------------------------------------------------------
                  HL-Gap            0.0832126 Eh            2.2643 eV
             Fermi-level           -0.3041476 Eh           -8.2763 eV

 SCC (total)                   0 d,  0 h,  0 min,  0.008 sec
 SCC setup                      ...        0 min,  0.000 sec (  4.677%)
 Dispersion                     ...        0 min,  0.000 sec (  0.410%)
 classical contributions        ...        0 min,  0.000 sec (  0.267%)
 integral evaluation            ...        0 min,  0.002 sec ( 20.629%)
 iterations                     ...        0 min,  0.004 sec ( 49.331%)
 molecular gradient             ...        0 min,  0.002 sec ( 22.797%)
 printout                       ...        0 min,  0.000 sec (  1.751%)

         :::::::::::::::::::::::::::::::::::::::::::::::::::::
         ::                     SUMMARY                     ::
         :::::::::::::::::::::::::::::::::::::::::::::::::::::
         :: total energy             -13.166187279048 Eh    ::
         :: total w/o Gsasa/hb       -13.166115136653 Eh    ::
         :: gradient norm              0.090255299906 Eh/a0 ::
         :: HOMO-LUMO gap              2.264329773123 eV    ::
         ::.................................................::
         :: SCC energy               -13.217370059509 Eh    ::
         :: -> isotropic ES            0.219786635999 Eh    ::
         :: -> anisotropic ES         -0.012079074257 Eh    ::
         :: -> anisotropic XC         -0.005176780975 Eh    ::
         :: -> dispersion             -0.002271923457 Eh    ::
         :: -> Gsolv                  -0.116087471486 Eh    ::
         ::    -> Gborn               -0.116015329091 Eh    ::
         ::    -> Gsasa                0.000185736038 Eh    ::
         ::    -> Ghb                 -0.002115321560 Eh    ::
         ::    -> Gshift               0.001857443127 Eh    ::
         :: repulsion energy           0.051182623422 Eh    ::
         :: add. restraining           0.000000015780 Eh    ::
         :: total charge              -1.000000000000 e     ::
         :::::::::::::::::::::::::::::::::::::::::::::::::::::

      ----------------------------------------------------------- 
     |                   =====================                   |
     |                        A N C O P T                        |
     |                   =====================                   |
     |               Approximate Normal Coordinate               |
     |                Rational Function Optimizer                |
      ----------------------------------------------------------- 

          ...................................................
          :                      SETUP                      :
          :.................................................:
          :   optimization level            normal          :
          :   max. optcycles                   200          :
          :   ANC micro-cycles                  20          :
          :   degrees of freedom                12          :
          :.................................................:
          :   RF solver                   davidson          :
          :   write xtbopt.log                true          :
          :   linear?                        false          :
          :   energy convergence         0.5000000E-05 Eh   :
          :   grad. convergence          0.1000000E-02 Eh/α :
          :   maximium RF displ.         1.0000000          :
          :   Hlow (freq-cutoff)         0.1000000E-01      :
          :   Hmax (freq-cutoff)         5.0000000          :
          :   S6 in model hess.         20.0000000          :
          ...................................................

generating ANC from model Hessian ...
Using Lindh-Hessian (1995)
 Shifting diagonal of input Hessian by    1.0084246355466387E-003
 Lowest  eigenvalues of input Hessian
    0.000000    0.000000    0.000000    0.000000    0.000000    0.000000
    0.010000    0.022508    0.031842    0.043486    0.098853    0.138349
    0.150642    0.427697    0.805779    1.189657    6.971679    9.825076
 Highest eigenvalues
    0.150642    0.427697    0.805779    1.189657    6.971679    9.825076


........................................................................
.............................. CYCLE    1 ..............................
........................................................................
   1    -13.2173701 -0.132174E+02  0.467E-05    2.26       0.0  T
   2    -13.2173701 -0.345324E-11  0.270E-05    2.26    1509.7  T
   3    -13.2173701 -0.196110E-11  0.175E-05    2.26    2326.5  T
     SCC iter.                  ...        0 min,  0.001 sec
     gradient                   ...        0 min,  0.001 sec
 * total energy  :   -13.1661873 Eh     change       -0.4824585E-11 Eh
   gradient norm :     0.0902551 Eh/α   predicted     0.0000000E+00 (-100.00%)
   displ. norm   :     0.6649091 α      lambda       -0.4362063E-01
   maximum displ.:     0.5135880 α      in ANC's #2, #5, #4, ...

........................................................................
.............................. CYCLE    2 ..............................
........................................................................
   1    -13.2373693 -0.132374E+02  0.122E+00    2.60       0.0  T
   2    -13.2378443 -0.475062E-03  0.731E-01    2.57       1.0  T
   3    -13.2378577 -0.134238E-04  0.275E-01    2.50       1.0  T
   4    -13.2379350 -0.772961E-04  0.138E-01    2.55       1.0  T
   5    -13.2379715 -0.364943E-04  0.844E-02    2.54       1.0  T
   6    -13.2379912 -0.196729E-04  0.189E-02    2.54       2.2  T
   7    -13.2379919 -0.701961E-06  0.105E-02    2.54       3.9  T
   8    -13.2379921 -0.214437E-06  0.477E-03    2.54       8.6  T
   9    -13.2379922 -0.596013E-07  0.191E-03    2.54      21.4  T
  10    -13.2379922 -0.755059E-08  0.855E-04    2.54      47.7  T
  11    -13.2379922 -0.122361E-08  0.405E-05    2.54    1007.4  T
     SCC iter.                  ...        0 min,  0.003 sec
     gradient                   ...        0 min,  0.001 sec
 * total energy  :   -13.1879634 Eh     change       -0.2177611E-01 Eh
   gradient norm :     0.1684047 Eh/α   predicted    -0.3145282E-01 (  44.44%)
   displ. norm   :     0.2309844 α      lambda       -0.7893665E-02
   maximum displ.:     0.1664779 α      in ANC's #2, #4, #1, ...

........................................................................
.............................. CYCLE    3 ..............................
........................................................................
   1    -13.2378188 -0.132378E+02  0.458E-01    2.64       0.0  T
   2    -13.2378533 -0.344520E-04  0.273E-01    2.63       1.0  T
   3    -13.2378560 -0.267757E-05  0.543E-02    2.61       1.0  T
   4    -13.2378577 -0.176016E-05  0.232E-02    2.62       1.8  T
   5    -13.2378590 -0.127125E-05  0.159E-02    2.61       2.6  T
   6    -13.2378596 -0.662324E-06  0.628E-03    2.61       6.5  T
   7    -13.2378597 -0.652452E-07  0.226E-03    2.61      18.1  T
   8    -13.2378597 -0.105186E-07  0.925E-04    2.61      44.2  T
   9    -13.2378597 -0.216895E-08  0.342E-04    2.61     119.4  T
     SCC iter.                  ...        0 min,  0.002 sec
     gradient                   ...        0 min,  0.001 sec
 * total energy  :   -13.1900645 Eh     change       -0.2101117E-02 Eh
   gradient norm :     0.1162895 Eh/α   predicted    -0.4157409E-02 (  97.87%)
   displ. norm   :     0.1646683 α      lambda       -0.2901322E-02
   maximum displ.:     0.1094262 α      in ANC's #4, #1, #2, ...

........................................................................
.............................. CYCLE    4 ..............................
........................................................................
   1    -13.2448600 -0.132449E+02  0.292E-01    2.59       0.0  T
   2    -13.2448724 -0.124095E-04  0.169E-01    2.59       1.0  T
   3    -13.2448735 -0.101583E-05  0.389E-02    2.57       1.0  T
   4    -13.2448758 -0.235851E-05  0.233E-02    2.58       1.8  T
   5    -13.2448766 -0.800058E-06  0.164E-02    2.58       2.5  T
   6    -13.2448774 -0.800278E-06  0.543E-03    2.58       7.5  T
   7    -13.2448775 -0.590789E-07  0.140E-03    2.58      29.2  T
   8    -13.2448775 -0.351029E-08  0.712E-04    2.58      57.4  T
   9    -13.2448775 -0.121093E-08  0.210E-04    2.58     194.6  T
     SCC iter.                  ...        0 min,  0.002 sec
     gradient                   ...        0 min,  0.001 sec
 * total energy  :   -13.1911954 Eh     change       -0.1130911E-02 Eh
   gradient norm :     0.0215934 Eh/α   predicted    -0.1489994E-02 (  31.75%)
   displ. norm   :     0.2480546 α      lambda       -0.1803033E-02
   maximum displ.:     0.2065696 α      in ANC's #1, #2, #4, ...

........................................................................
.............................. CYCLE    5 ..............................
........................................................................
   1    -13.2479871 -0.132480E+02  0.343E-01    2.53       0.0  T
   2    -13.2480097 -0.226520E-04  0.201E-01    2.56       1.0  T
   3    -13.2480018  0.795737E-05  0.868E-02    2.54       1.0  T
   4    -13.2480181 -0.163453E-04  0.258E-02    2.56       1.6  T
   5    -13.2480187 -0.548488E-06  0.160E-02    2.56       2.6  T
   6    -13.2480192 -0.489214E-06  0.663E-03    2.56       6.2  T
   7    -13.2480192 -0.621378E-07  0.746E-04    2.56      54.7  T
   8    -13.2480192 -0.689004E-09  0.250E-04    2.55     163.4  T
     SCC iter.                  ...        0 min,  0.002 sec
     gradient                   ...        0 min,  0.001 sec
 * total energy  :   -13.1914318 Eh     change       -0.2364148E-03 Eh
   gradient norm :     0.0850395 Eh/α   predicted    -0.9569854E-03 ( 304.79%)
   displ. norm   :     0.0987711 α      lambda       -0.1186508E-02
   maximum displ.:     0.0738731 α      in ANC's #2, #1, #5, ...

........................................................................
.............................. CYCLE    6 ..............................
........................................................................
   1    -13.2462507 -0.132463E+02  0.149E-01    2.59       0.0  T
   2    -13.2462663 -0.155789E-04  0.839E-02    2.56       1.0  T
   3    -13.2462667 -0.497648E-06  0.419E-02    2.57       1.0  T
   4    -13.2462684 -0.163823E-05  0.172E-02    2.56       2.4  T
   5    -13.2462687 -0.285358E-06  0.710E-03    2.56       5.7  T
   6    -13.2462688 -0.997177E-07  0.290E-03    2.56      14.1  T
   7    -13.2462688 -0.119883E-07  0.766E-04    2.56      53.3  T
   8    -13.2462688 -0.971241E-09  0.140E-04    2.56     290.9  T
     SCC iter.                  ...        0 min,  0.002 sec
     gradient                   ...        0 min,  0.001 sec
 * total energy  :   -13.1922774 Eh     change       -0.8455980E-03 Eh
   gradient norm :     0.0404135 Eh/α   predicted    -0.5990397E-03 ( -29.16%)
   displ. norm   :     0.3970801 α      lambda       -0.1622035E-02
   maximum displ.:     0.3825407 α      in ANC's #1, #2, #5, ...

........................................................................
.............................. CYCLE    7 ..............................
........................................................................
   1    -13.2450139 -0.132450E+02  0.391E-01    2.60       0.0  T
   2    -13.2450898 -0.758328E-04  0.224E-01    2.54       1.0  T
   3    -13.2450957 -0.592643E-05  0.904E-02    2.53       1.0  T
   4    -13.2450997 -0.397870E-05  0.406E-02    2.52       1.0  T
   5    -13.2451029 -0.323191E-05  0.221E-02    2.53       1.8  T
   6    -13.2451040 -0.104502E-05  0.675E-03    2.53       6.1  T
   7    -13.2451040 -0.537337E-07  0.326E-03    2.53      12.5  T
   8    -13.2451040 -0.173492E-07  0.450E-04    2.53      90.6  T
   9    -13.2451040 -0.366388E-09  0.272E-04    2.53     150.2  T
     SCC iter.                  ...        0 min,  0.002 sec
     gradient                   ...        0 min,  0.001 sec
 * total energy  :   -13.1937232 Eh     change       -0.1445765E-02 Eh
   gradient norm :     0.0786991 Eh/α   predicted    -0.9388820E-03 ( -35.06%)
   displ. norm   :     0.7092658 α      lambda       -0.3847874E-02
   maximum displ.:     0.6762590 α      in ANC's #1, #2, #6, ...

........................................................................
.............................. CYCLE    8 ..............................
........................................................................
   1    -13.2419898 -0.132420E+02  0.683E-01    2.58       0.0  T
   2    -13.2421758 -0.185977E-03  0.400E-01    2.47       1.0  T
   3    -13.2421773 -0.154795E-05  0.175E-01    2.45       1.0  T
   4    -13.2422172 -0.398382E-04  0.762E-02    2.43       1.0  T
   5    -13.2422233 -0.617119E-05  0.402E-02    2.45       1.0  T
   6    -13.2422264 -0.303926E-05  0.166E-02    2.44       2.5  T
   7    -13.2422270 -0.610111E-06  0.686E-03    2.45       6.0  T
   8    -13.2422270 -0.390616E-07  0.147E-03    2.45      27.8  T
   9    -13.2422270 -0.428898E-08  0.962E-04    2.45      42.4  T
  10    -13.2422270 -0.253985E-08  0.392E-04    2.45     104.0  T
     SCC iter.                  ...        0 min,  0.002 sec
     gradient                   ...        0 min,  0.001 sec
 * total energy  :   -13.1942573 Eh     change       -0.5341117E-03 Eh
   gradient norm :     0.2269381 Eh/α   predicted    -0.2891803E-02 ( 441.42%)
   displ. norm   :     0.1255142 α      lambda       -0.1073309E-01
   maximum displ.:     0.0647301 α      in ANC's #6, #8, #5, ...

........................................................................
.............................. CYCLE    9 ..............................
........................................................................
   1    -13.2480620 -0.132481E+02  0.221E-01    2.56       0.0  T
   2    -13.2480679 -0.595671E-05  0.131E-01    2.57       1.0  T
   3    -13.2480701 -0.220630E-05  0.283E-02    2.57       1.4  T
   4    -13.2480707 -0.586255E-06  0.155E-02    2.57       2.6  T
   5    -13.2480711 -0.394185E-06  0.128E-02    2.57       3.2  T
   6    -13.2480715 -0.452153E-06  0.598E-03    2.57       6.8  T
   7    -13.2480716 -0.831002E-07  0.112E-03    2.57      36.4  T
   8    -13.2480716 -0.250553E-08  0.704E-04    2.57      58.0  T
   9    -13.2480716 -0.123577E-08  0.254E-04    2.57     160.4  T
     SCC iter.                  ...        0 min,  0.002 sec
     gradient                   ...        0 min,  0.001 sec
 * total energy  :   -13.1958468 Eh     change       -0.1589503E-02 Eh
   gradient norm :     0.1532827 Eh/α   predicted    -0.5451088E-02 ( 242.94%)
   displ. norm   :     0.2053098 α      lambda       -0.6690448E-02
   maximum displ.:     0.1386980 α      in ANC's #1, #4, #2, ...

........................................................................
.............................. CYCLE   10 ..............................
........................................................................
   1    -13.2495932 -0.132496E+02  0.370E-01    2.53       0.0  T
   2    -13.2496170 -0.238183E-04  0.215E-01    2.51       1.0  T
   3    -13.2496178 -0.778797E-06  0.460E-02    2.47       1.0  T
   4    -13.2496202 -0.240492E-05  0.210E-02    2.49       1.9  T
   5    -13.2496212 -0.984460E-06  0.849E-03    2.49       4.8  T
   6    -13.2496213 -0.125506E-06  0.357E-03    2.49      11.4  T
   7    -13.2496213 -0.209454E-07  0.162E-03    2.49      25.2  T
   8    -13.2496214 -0.451373E-08  0.409E-04    2.49      99.8  T
   9    -13.2496214 -0.386542E-09  0.211E-04    2.49     193.5  T
     SCC iter.                  ...        0 min,  0.001 sec
     gradient                   ...        0 min,  0.001 sec
 * total energy  :   -13.1996901 Eh     change       -0.3843299E-02 Eh
   gradient norm :     0.0356921 Eh/α   predicted    -0.3486231E-02 (  -9.29%)
   displ. norm   :     0.4210699 α      lambda       -0.3261886E-02
   maximum displ.:     0.3677840 α      in ANC's #1, #3, #8, ...

........................................................................
.............................. CYCLE   11 ..............................
........................................................................
   1    -13.2492066 -0.132492E+02  0.476E-01    2.43       0.0  T
   2    -13.2492192 -0.126033E-04  0.286E-01    2.40       1.0  T
   3    -13.2492177  0.151136E-05  0.686E-02    2.41       1.0  T
   4    -13.2492281 -0.104786E-04  0.354E-02    2.40       1.2  T
   5    -13.2492298 -0.163303E-05  0.246E-02    2.40       1.7  T
   6    -13.2492313 -0.156331E-05  0.478E-03    2.40       8.5  T
   7    -13.2492314 -0.261264E-07  0.293E-03    2.40      13.9  T
   8    -13.2492314 -0.144111E-07  0.172E-03    2.40      23.7  T
   9    -13.2492314 -0.897663E-08  0.245E-04    2.40     166.8  T
  10    -13.2492314 -0.435598E-10  0.330E-05    2.40    1237.8  T
     SCC iter.                  ...        0 min,  0.002 sec
     gradient                   ...        0 min,  0.001 sec
 * total energy  :   -13.1998669 Eh     change       -0.1768235E-03 Eh
   gradient norm :     0.1706222 Eh/α   predicted    -0.1920108E-02 ( 985.89%)
   displ. norm   :     0.1244833 α      lambda       -0.4264686E-02
   maximum displ.:     0.1004157 α      in ANC's #3, #8, #2, ...

........................................................................
.............................. CYCLE   12 ..............................
........................................................................
   1    -13.2555003 -0.132555E+02  0.269E-01    2.47       0.0  T
   2    -13.2555392 -0.388756E-04  0.124E-01    2.44       1.0  T
   3    -13.2555426 -0.343198E-05  0.580E-02    2.40       1.0  T
   4    -13.2555456 -0.302865E-05  0.224E-02    2.41       1.8  T
   5    -13.2555461 -0.466552E-06  0.654E-03    2.41       6.2  T
   6    -13.2555462 -0.778560E-07  0.367E-03    2.41      11.1  T
   7    -13.2555462 -0.289943E-07  0.191E-03    2.41      21.4  T
   8    -13.2555462 -0.958288E-08  0.453E-04    2.41      90.1  T
   9    -13.2555462 -0.461128E-09  0.195E-04    2.41     209.7  T
     SCC iter.                  ...        0 min,  0.001 sec
     gradient                   ...        0 min,  0.001 sec
 * total energy  :   -13.2009305 Eh     change       -0.1063599E-02 Eh
   gradient norm :     0.1219279 Eh/α   predicted    -0.2165384E-02 ( 103.59%)
   displ. norm   :     0.2807451 α      lambda       -0.4978095E-02
   maximum displ.:     0.2671738 α      in ANC's #1, #3, #4, ...

........................................................................
.............................. CYCLE   13 ..............................
........................................................................
   1    -13.2602208 -0.132602E+02  0.379E-01    2.42       0.0  T
   2    -13.2603364 -0.115545E-03  0.198E-01    2.51       1.0  T
   3    -13.2603429 -0.654106E-05  0.104E-01    2.51       1.0  T
   4    -13.2603531 -0.102072E-04  0.473E-02    2.52       1.0  T
   5    -13.2603542 -0.112145E-05  0.164E-02    2.52       2.5  T
   6    -13.2603547 -0.497695E-06  0.811E-03    2.52       5.0  T
   7    -13.2603548 -0.852301E-07  0.385E-03    2.52      10.6  T
   8    -13.2603548 -0.327308E-07  0.872E-04    2.52      46.8  T
   9    -13.2603548 -0.156130E-08  0.523E-04    2.52      78.0  T
     SCC iter.                  ...        0 min,  0.001 sec
     gradient                   ...        0 min,  0.001 sec
 * total energy  :   -13.1994367 Eh     change        0.1493846E-02 Eh
   gradient norm :     0.1441913 Eh/α   predicted    -0.2685237E-02 (-279.75%)
   displ. norm   :     0.2388387 α      lambda       -0.4565816E-02
   maximum displ.:     0.2262858 α      in ANC's #1, #6, #5, ...

........................................................................
.............................. CYCLE   14 ..............................
........................................................................
   1    -13.2560470 -0.132560E+02  0.291E-01    2.50       0.0  T
   2    -13.2560823 -0.353029E-04  0.165E-01    2.45       1.0  T
   3    -13.2560806  0.175223E-05  0.826E-02    2.45       1.0  T
   4    -13.2560903 -0.975954E-05  0.310E-02    2.44       1.3  T
   5    -13.2560910 -0.641768E-06  0.128E-02    2.44       3.2  T
   6    -13.2560913 -0.337841E-06  0.540E-03    2.44       7.6  T
   7    -13.2560914 -0.436569E-07  0.268E-03    2.44      15.3  T
   8    -13.2560914 -0.124909E-07  0.768E-04    2.44      53.2  T
   9    -13.2560914 -0.161242E-08  0.334E-04    2.44     122.1  T
     SCC iter.                  ...        0 min,  0.001 sec
     gradient                   ...        0 min,  0.001 sec
 * total energy  :   -13.2022704 Eh     change       -0.2833713E-02 Eh
   gradient norm :     0.0178871 Eh/α   predicted    -0.2413132E-02 ( -14.84%)
   displ. norm   :     0.2040262 α      lambda       -0.7829579E-03
   maximum displ.:     0.1843672 α      in ANC's #1, #8, #2, ...

........................................................................
.............................. CYCLE   15 ..............................
........................................................................
   1    -13.2557856 -0.132558E+02  0.236E-01    2.44       0.0  T
   2    -13.2557982 -0.125960E-04  0.139E-01    2.40       1.0  T
   3    -13.2557988 -0.603776E-06  0.405E-02    2.39       1.0  T
   4    -13.2558007 -0.198293E-05  0.173E-02    2.39       2.4  T
   5    -13.2558012 -0.424543E-06  0.102E-02    2.39       4.0  T
   6    -13.2558014 -0.236712E-06  0.232E-03    2.39      17.6  T
   7    -13.2558014 -0.765414E-08  0.120E-03    2.39      34.1  T
   8    -13.2558014 -0.160581E-08  0.556E-04    2.39      73.4  T
   9    -13.2558014 -0.994483E-09  0.159E-04    2.39     257.3  T
     SCC iter.                  ...        0 min,  0.001 sec
     gradient                   ...        0 min,  0.001 sec
 * total energy  :   -13.2025792 Eh     change       -0.3087685E-03 Eh
   gradient norm :     0.0558855 Eh/α   predicted    -0.4077798E-03 (  32.07%)
   displ. norm   :     0.0176734 α      lambda       -0.3183844E-03
   maximum displ.:     0.0117440 α      in ANC's #3, #8, #1, ...

........................................................................
.............................. CYCLE   16 ..............................
........................................................................
   1    -13.2569041 -0.132569E+02  0.343E-02    2.40       0.0  T
   2    -13.2569045 -0.323939E-06  0.195E-02    2.41       2.1  T
   3    -13.2569044  0.549106E-07  0.853E-03    2.41       4.8  T
   4    -13.2569045 -0.131862E-06  0.277E-03    2.41      14.7  T
   5    -13.2569045 -0.408706E-08  0.823E-04    2.41      49.6  T
   6    -13.2569045 -0.110006E-08  0.480E-04    2.41      85.0  T
     SCC iter.                  ...        0 min,  0.001 sec
     gradient                   ...        0 min,  0.001 sec
 * total energy  :   -13.2028073 Eh     change       -0.2281626E-03 Eh
   gradient norm :     0.0231046 Eh/α   predicted    -0.1592439E-03 ( -30.21%)
   displ. norm   :     0.0900256 α      lambda       -0.2569179E-03
   maximum displ.:     0.0665798 α      in ANC's #1, #8, #3, ...

........................................................................
.............................. CYCLE   17 ..............................
........................................................................
   1    -13.2576238 -0.132576E+02  0.124E-01    2.42       0.0  T
   2    -13.2576241 -0.255126E-06  0.737E-02    2.41       1.0  T
   3    -13.2576242 -0.101057E-06  0.684E-03    2.41       6.0  T
   4    -13.2576243 -0.679724E-07  0.470E-03    2.41       8.7  T
   5    -13.2576243 -0.265700E-07  0.316E-03    2.41      12.9  T
   6    -13.2576243 -0.206550E-07  0.565E-04    2.41      72.2  T
   7    -13.2576243 -0.179101E-09  0.244E-04    2.41     167.4  T
     SCC iter.                  ...        0 min,  0.001 sec
     gradient                   ...        0 min,  0.001 sec
 * total energy  :   -13.2029641 Eh     change       -0.1567293E-03 Eh
   gradient norm :     0.0111937 Eh/α   predicted    -0.1295005E-03 ( -17.37%)
   displ. norm   :     0.0452918 α      lambda       -0.5549783E-04
   maximum displ.:     0.0331350 α      in ANC's #1, #3, #8, ...

........................................................................
.............................. CYCLE   18 ..............................
........................................................................
   1    -13.2579379 -0.132579E+02  0.628E-02    2.41       0.0  T
   2    -13.2579380 -0.495108E-07  0.374E-02    2.41       1.1  T
   3    -13.2579380 -0.402706E-07  0.327E-03    2.41      12.5  T
   4    -13.2579380 -0.951457E-08  0.260E-03    2.41      15.7  T
   5    -13.2579380 -0.102961E-07  0.147E-03    2.41      27.8  T
   6    -13.2579380 -0.447270E-08  0.229E-04    2.41     178.0  T
   7    -13.2579380 -0.196252E-10  0.100E-04    2.41     407.2  T
     SCC iter.                  ...        0 min,  0.001 sec
     gradient                   ...        0 min,  0.001 sec
 * total energy  :   -13.2030035 Eh     change       -0.3943619E-04 Eh
   gradient norm :     0.0094015 Eh/α   predicted    -0.2780409E-04 ( -29.50%)
   displ. norm   :     0.0432359 α      lambda       -0.4920551E-04
   maximum displ.:     0.0267601 α      in ANC's #1, #3, #5, ...

........................................................................
.............................. CYCLE   19 ..............................
........................................................................
   1    -13.2578726 -0.132579E+02  0.601E-02    2.42       0.0  T
   2    -13.2578727 -0.596108E-07  0.355E-02    2.42       1.1  T
   3    -13.2578727 -0.314331E-07  0.352E-03    2.42      11.6  T
   4    -13.2578727 -0.184389E-07  0.268E-03    2.42      15.2  T
   5    -13.2578727 -0.103614E-07  0.167E-03    2.42      24.5  T
   6    -13.2578727 -0.621729E-08  0.344E-04    2.42     118.7  T
   7    -13.2578727 -0.112692E-09  0.170E-04    2.42     240.2  T
     SCC iter.                  ...        0 min,  0.001 sec
     gradient                   ...        0 min,  0.001 sec
 * total energy  :   -13.2030378 Eh     change       -0.3430814E-04 Eh
   gradient norm :     0.0080204 Eh/α   predicted    -0.2464941E-04 ( -28.15%)
   displ. norm   :     0.0280527 α      lambda       -0.3591555E-04
   maximum displ.:     0.0202837 α      in ANC's #3, #5, #4, ...

........................................................................
.............................. CYCLE   20 ..............................
........................................................................
   1    -13.2579454 -0.132579E+02  0.421E-02    2.43       0.0  T
   2    -13.2579456 -0.240507E-06  0.247E-02    2.43       1.7  T
   3    -13.2579457 -0.251475E-07  0.550E-03    2.43       7.4  T
   4    -13.2579457 -0.437771E-07  0.290E-03    2.43      14.1  T
   5    -13.2579457 -0.112037E-07  0.207E-03    2.43      19.7  T
   6    -13.2579457 -0.107587E-07  0.389E-04    2.43     105.0  T
   7    -13.2579457 -0.216101E-09  0.163E-04    2.43     249.8  T
     SCC iter.                  ...        0 min,  0.001 sec
     gradient                   ...        0 min,  0.001 sec
 * total energy  :   -13.2030599 Eh     change       -0.2208719E-04 Eh
   gradient norm :     0.0038806 Eh/α   predicted    -0.1797187E-04 ( -18.63%)
   displ. norm   :     0.0102484 α      lambda       -0.8221385E-05
   maximum displ.:     0.0063780 α      in ANC's #1, #8, #3, ...
 * RMSD in coord.:     1.0766340 α      energy gain  -0.3687261E-01 Eh

generating ANC from model Hessian ...
Using Lindh-Hessian (1995)
 Shifting diagonal of input Hessian by    0.0000000000000000     
 Lowest  eigenvalues of input Hessian
    0.000000    0.000000    0.000000    0.000000    0.000000    0.000000
    0.011419    0.014864    0.027211    0.027888    0.088910    0.130643
    0.139825    0.476443    0.743397    1.188693    7.679251    9.173075
 Highest eigenvalues
    0.139825    0.476443    0.743397    1.188693    7.679251    9.173075


........................................................................
.............................. CYCLE   21 ..............................
........................................................................
   1    -13.2577820 -0.132578E+02  0.116E-02    2.43       0.0  T
   2    -13.2577820 -0.359992E-07  0.674E-03    2.43       6.1  T
   3    -13.2577821 -0.918008E-08  0.183E-03    2.44      22.4  T
   4    -13.2577821 -0.262935E-08  0.110E-03    2.44      37.3  T
   5    -13.2577821 -0.133812E-08  0.850E-04    2.44      48.0  T
   6    -13.2577821 -0.186164E-08  0.225E-04    2.44     181.5  T
     SCC iter.                  ...        0 min,  0.001 sec
     gradient                   ...        0 min,  0.001 sec
 * total energy  :   -13.2030646 Eh     change       -0.4753223E-05 Eh
   gradient norm :     0.0012730 Eh/α   predicted     0.0000000E+00 (-100.00%)
   displ. norm   :     0.0131420 α      lambda       -0.1787373E-05
   maximum displ.:     0.0110489 α      in ANC's #1, #4, #2, ...

........................................................................
.............................. CYCLE   22 ..............................
........................................................................
   1    -13.2577859 -0.132578E+02  0.116E-02    2.43       0.0  T
   2    -13.2577859 -0.648318E-08  0.695E-03    2.43       5.9  T
   3    -13.2577859 -0.297518E-08  0.141E-03    2.43      28.9  T
   4    -13.2577859 -0.385480E-08  0.100E-03    2.43      40.7  T
   5    -13.2577859 -0.214911E-08  0.328E-04    2.43     124.3  T
   6    -13.2577859 -0.159019E-09  0.913E-05    2.43     447.0  T
     SCC iter.                  ...        0 min,  0.001 sec
     gradient                   ...        0 min,  0.001 sec
 * total energy  :   -13.2030648 Eh     change       -0.1318175E-06 Eh
   gradient norm :     0.0021379 Eh/α   predicted    -0.8944905E-06 ( 578.58%)
   displ. norm   :     0.0050112 α      lambda       -0.1272761E-05
   maximum displ.:     0.0041004 α      in ANC's #2, #4, #1, ...

........................................................................
.............................. CYCLE   23 ..............................
........................................................................
   1    -13.2577748 -0.132578E+02  0.718E-03    2.43       0.0  T
   2    -13.2577748 -0.616097E-08  0.438E-03    2.43       9.3  T
   3    -13.2577748 -0.839924E-09  0.119E-03    2.43      34.2  T
   4    -13.2577748 -0.286715E-08  0.760E-04    2.43      53.7  T
   5    -13.2577748 -0.781094E-09  0.475E-04    2.43      86.0  T
     SCC iter.                  ...        0 min,  0.001 sec
     gradient                   ...        0 min,  0.001 sec
 * total energy  :   -13.2030652 Eh     change       -0.4180217E-06 Eh
   gradient norm :     0.0008015 Eh/α   predicted    -0.6375100E-06 (  52.51%)
   displ. norm   :     0.0097945 α      lambda       -0.1169828E-05
   maximum displ.:     0.0065600 α      in ANC's #2, #4, #1, ...

   *** GEOMETRY OPTIMIZATION CONVERGED AFTER 23 ITERATIONS ***

------------------------------------------------------------------------
 total energy gain   :        -0.0368779 Eh      -23.1412 kcal/mol
 total RMSD          :         1.0721510 a0        0.5674 Å
 total power (kW/mol):        -4.2096930 (step)-1240.2057 (real)
------------------------------------------------------------------------

 ANCopt (total)                0 d,  0 h,  0 min,  0.078 sec
 optimizer setup                ...        0 min,  0.000 sec (  0.121%)
 model hessian                  ...        0 min,  0.000 sec (  0.545%)
 ANC generation                 ...        0 min,  0.000 sec (  0.375%)
 coordinate transformation      ...        0 min,  0.000 sec (  0.072%)
 single point calculation       ...        0 min,  0.074 sec ( 95.002%)
 optimization log               ...        0 min,  0.001 sec (  1.240%)
 hessian update                 ...        0 min,  0.000 sec (  0.112%)
 rational function              ...        0 min,  0.001 sec (  1.291%)

================
 final structure:
================
6
 xtb: 6.3.3 (71d3805)
C         5.32116705642524   -0.49095741217193   -0.40317986748976
Cl        4.79129032919588   -1.77705952751286   -2.01375245886348
H         6.26316350607288   -1.04613691080272   -0.33509152153062
H         4.72784613067694   -0.64502070996951    0.47969953897944
H         5.50181444037637    0.52330826671993   -0.70970633428736
F         3.50935853725268    0.20368629373691   -0.89752935680828

 Bond Distances (Angstroems)
 ---------------------------
C1-Cl2=2.1281        C1-H3=1.0955         C1-H4=1.0748         C1-H5=1.0749         Cl2-C1=2.1281        H3-C1=1.0955         
H4-C1=1.0748         H5-C1=1.0749         
 C  H  Rav=1.0817 sigma=0.0098  Rmin=1.0748  Rmax=1.0955     3
 Cl C  Rav=2.1281 sigma=0.0000  Rmin=2.1281  Rmax=2.1281     1

 selected bond angles (degree)
 --------------------
H3-C1-Cl2= 87.41               H4-C1-Cl2=113.43               H4-C1-H3=110.55                H5-C1-Cl2=113.35               
H5-C1-H3=110.57                H5-C1-H4=117.53                

 selected dihedral angles (degree)
 ---------------------------------


 CMA Distance (Angstroems)
 ---------------------------
R(CMA):  2.2418
           -------------------------------------------------
          |                Final Singlepoint                |
           -------------------------------------------------

          ...................................................
          :                      SETUP                      :
          :.................................................:
          :  # basis functions                  21          :
          :  # atomic orbitals                  20          :
          :  # shells                           10          :
          :  # electrons                        22          :
          :  max. iterations                   250          :
          :  Hamiltonian                  GFN2-xTB          :
          :  restarted?                      false          :
          :  GBSA solvation                   true          :
          :  PC potential                    false          :
          :  electronic temp.          300.0000000     K    :
          :  accuracy                    1.0000000          :
          :  -> integral cutoff          0.2500000E+02      :
          :  -> integral neglect         0.1000000E-07      :
          :  -> SCF convergence          0.1000000E-05 Eh   :
          :  -> wf. convergence          0.1000000E-03 e    :
          :  Broyden damping             0.4000000          :
          ...................................................

 iter      E             dE          RMSdq      gap      omega  full diag
   1    -13.2577748 -0.132578E+02  0.786E-05    2.43       0.0  T
   2    -13.2577748 -0.259703E-11  0.571E-05    2.43     715.5  T
   3    -13.2577748 -0.395239E-11  0.316E-05    2.43    1290.8  T

   *** convergence criteria satisfied after 3 iterations ***

         #    Occupation            Energy/Eh            Energy/eV
      -------------------------------------------------------------
         1        2.0000           -1.0261758             -27.9237
       ...           ...                  ...                  ...
         5        2.0000           -0.4777941             -13.0014
         6        2.0000           -0.4419235             -12.0254
         7        2.0000           -0.3962946             -10.7837
         8        2.0000           -0.3909954             -10.6395
         9        2.0000           -0.3521908              -9.5836
        10        2.0000           -0.3492798              -9.5044
        11        2.0000           -0.3415046              -9.2928 (HOMO)
        12                         -0.2520584              -6.8589 (LUMO)
        13                          0.0622124               1.6929
        14                          0.0649364               1.7670
        15                          0.0695162               1.8916
        16                          0.0718668               1.9556
       ...                                ...                  ...
        20                          0.2671796               7.2703
      -------------------------------------------------------------
                  HL-Gap            0.0894461 Eh            2.4340 eV
             Fermi-level           -0.2967815 Eh           -8.0758 eV

 SCC (total)                   0 d,  0 h,  0 min,  0.002 sec
 SCC setup                      ...        0 min,  0.000 sec (  8.197%)
 Dispersion                     ...        0 min,  0.000 sec (  0.580%)
 classical contributions        ...        0 min,  0.000 sec (  0.211%)
 integral evaluation            ...        0 min,  0.001 sec ( 28.554%)
 iterations                     ...        0 min,  0.001 sec ( 27.021%)
 molecular gradient             ...        0 min,  0.001 sec ( 31.449%)
 printout                       ...        0 min,  0.000 sec (  3.665%)

         :::::::::::::::::::::::::::::::::::::::::::::::::::::
         ::                     SUMMARY                     ::
         :::::::::::::::::::::::::::::::::::::::::::::::::::::
         :: total energy             -13.203065189666 Eh    ::
         :: total w/o Gsasa/hb       -13.202639787561 Eh    ::
         :: gradient norm              0.000802885227 Eh/a0 ::
         :: HOMO-LUMO gap              2.433953574307 eV    ::
         ::.................................................::
         :: SCC energy               -13.257774773443 Eh    ::
         :: -> isotropic ES            0.238406701156 Eh    ::
         :: -> anisotropic ES         -0.005985109309 Eh    ::
         :: -> anisotropic XC         -0.001114045160 Eh    ::
         :: -> dispersion             -0.002323557949 Eh    ::
         :: -> Gsolv                  -0.120396095421 Eh    ::
         ::    -> Gborn               -0.119970693315 Eh    ::
         ::    -> Gsasa                0.000248424015 Eh    ::
         ::    -> Ghb                 -0.002531269248 Eh    ::
         ::    -> Gshift               0.001857443127 Eh    ::
         :: repulsion energy           0.054306326081 Eh    ::
         :: add. restraining           0.000403051573 Eh    ::
         :: total charge              -1.000000000000 e     ::
         :::::::::::::::::::::::::::::::::::::::::::::::::::::

           -------------------------------------------------
          |                Property Printout                |
           -------------------------------------------------

    * Orbital Energies and Occupations

         #    Occupation            Energy/Eh            Energy/eV
      -------------------------------------------------------------
         1        2.0000           -1.0261758             -27.9237
         2        2.0000           -0.6312947             -17.1784
         3        2.0000           -0.5825076             -15.8508
         4        2.0000           -0.4880643             -13.2809
         5        2.0000           -0.4777941             -13.0014
         6        2.0000           -0.4419235             -12.0254
         7        2.0000           -0.3962946             -10.7837
         8        2.0000           -0.3909954             -10.6395
         9        2.0000           -0.3521908              -9.5836
        10        2.0000           -0.3492798              -9.5044
        11        2.0000           -0.3415046              -9.2928 (HOMO)
        12                         -0.2520584              -6.8589 (LUMO)
        13                          0.0622124               1.6929
        14                          0.0649364               1.7670
        15                          0.0695162               1.8916
        16                          0.0718668               1.9556
        17                          0.0839121               2.2834
        18                          0.1538130               4.1855
        19                          0.2101337               5.7180
        20                          0.2671796               7.2703
      -------------------------------------------------------------
                  HL-Gap            0.0894461 Eh            2.4340 eV
             Fermi-level           -0.2967815 Eh           -8.0758 eV

     #   Z          covCN         q      C6AA      α(0)
     1   6 C        3.654     0.036    20.269     6.464
     2  17 Cl       0.738    -0.393   111.672    16.164
     3   1 H        0.924     0.038     2.472     2.459
     4   1 H        0.926     0.073     2.057     2.243
     5   1 H        0.926     0.073     2.058     2.243
     6   9 F        0.169    -0.826    20.770     5.312

 Mol. C6AA /au·bohr⁶  :        572.463915
 Mol. C8AA /au·bohr⁸  :      15914.799550
 Mol. α(0) /au        :         34.885152


Wiberg/Mayer (AO) data.
largest (>0.10) Wiberg bond orders for each atom

 ---------------------------------------------------------------------------
     #   Z sym  total        # sym  WBO       # sym  WBO       # sym  WBO
 ---------------------------------------------------------------------------
     1   6 C    3.925 --     5 H    0.991     4 H    0.991     3 H    0.980
                             2 Cl   0.756     6 F    0.207
     2  17 Cl   0.855 --     1 C    0.756
     3   1 H    0.999 --     1 C    0.980
     4   1 H    0.995 --     1 C    0.991
     5   1 H    0.995 --     1 C    0.991
     6   9 F    0.319 --     1 C    0.207
 ---------------------------------------------------------------------------

Topologies differ in total number of bonds
Writing topology from bond orders to xtbtopo.mol

molecular dipole:
                 x           y           z       tot (Debye)
 q only:       -6.822       0.876       2.813
   full:       -7.174       1.169       2.874      19.866
molecular quadrupole (traceless):
                xx          xy          yy          xz          yz          zz
 q only:      -39.927      12.846      22.698      32.768      -6.877      17.229
  q+dip:      -45.309      18.466      24.561      34.768      -9.347      20.748
   full:      -45.308      18.514      24.409      35.210      -8.868      20.899

           -------------------------------------------------
          |                Geometry Summary                 |
           -------------------------------------------------

      molecular mass/u    :       69.4858989
   center of mass at/Å    :        4.5631193      -0.9527998      -1.3507365
  moments of inertia/u·Å² :        0.3289644E+02   0.9193932E+02   0.1214302E+03
rotational constants/cm⁻¹ :        0.5124455E+00   0.1833561E+00   0.1388257E+00

 * 3 selected distances

     #   Z          #   Z                                           value/Å
     1   6 C        3   1 H                                       1.0955444 (max)
     1   6 C        4   1 H                                       1.0748215 (min)
     1   6 C        5   1 H                                       1.0748613

 * 1 distinct bonds (by element types)

   Z      Z             #   av. dist./Å        max./Å        min./Å
   1 H    6 C           3     1.0817424     1.0955444     1.0748215


optimized geometry written to: xtbopt.xyz


           -------------------------------------------------
          | TOTAL ENERGY              -13.203065189666 Eh   |
          | GRADIENT NORM               0.000802885227 Eh/α |
          | HOMO-LUMO GAP               2.433953574307 eV   |
           -------------------------------------------------

------------------------------------------------------------------------
 * finished run on 2024/05/31 at 17:50:20.017     
------------------------------------------------------------------------
 total:
 * wall-time:     0 d,  0 h,  0 min,  0.157 sec
 *  cpu-time:     0 d,  0 h,  0 min,  0.361 sec
 * ratio c/w:     2.294 speedup
 SCF:
 * wall-time:     0 d,  0 h,  0 min,  0.008 sec
 *  cpu-time:     0 d,  0 h,  0 min,  0.024 sec
 * ratio c/w:     2.989 speedup
 ANC optimizer:
 * wall-time:     0 d,  0 h,  0 min,  0.081 sec
 *  cpu-time:     0 d,  0 h,  0 min,  0.241 sec
 * ratio c/w:     2.990 speedup

