 Entering Gaussian System, Link 0=/opt/gaussian/g16/C01/g16/g16
 Input=TS_dOr2Us_ll_ad_0-5_0-1_conf299_opt_g16.com
 Output=TS_dOr2Us_ll_ad_0-5_0-1_conf299_opt_g16.log
 Initial command:
 /opt/gaussian/g16/C01/g16/l1.exe "/home/thijs/scratch/Gau-2620892.inp" -scrdir="/home/thijs/scratch/"
 Entering Link 1 = /opt/gaussian/g16/C01/g16/l1.exe PID=   2620894.
  
 Copyright (c) 1988-2019, Gaussian, Inc.  All Rights Reserved.
  
 This is part of the Gaussian(R) 16 program.  It is based on
 the Gaussian(R) 09 system (copyright 2009, Gaussian, Inc.),
 the Gaussian(R) 03 system (copyright 2003, Gaussian, Inc.),
 the Gaussian(R) 98 system (copyright 1998, Gaussian, Inc.),
 the Gaussian(R) 94 system (copyright 1995, Gaussian, Inc.),
 the Gaussian 92(TM) system (copyright 1992, Gaussian, Inc.),
 the Gaussian 90(TM) system (copyright 1990, Gaussian, Inc.),
 the Gaussian 88(TM) system (copyright 1988, Gaussian, Inc.),
 the Gaussian 86(TM) system (copyright 1986, Carnegie Mellon
 University), and the Gaussian 82(TM) system (copyright 1983,
 Carnegie Mellon University). Gaussian is a federally registered
 trademark of Gaussian, Inc.
  
 This software contains proprietary and confidential information,
 including trade secrets, belonging to Gaussian, Inc.
  
 This software is provided under written license and may be
 used, copied, transmitted, or stored only in accord with that
 written license.
  
 The following legend is applicable only to US Government
 contracts under FAR:
  
                    RESTRICTED RIGHTS LEGEND
  
 Use, reproduction and disclosure by the US Government is
 subject to restrictions as set forth in subparagraphs (a)
 and (c) of the Commercial Computer Software - Restricted
 Rights clause in FAR 52.227-19.
  
 Gaussian, Inc.
 340 Quinnipiac St., Bldg. 40, Wallingford CT 06492
  
  
 ---------------------------------------------------------------
 Warning -- This program may not be used in any manner that
 competes with the business of Gaussian, Inc. or will provide
 assistance to any competitor of Gaussian, Inc.  The licensee
 of this program is prohibited from giving any competitor of
 Gaussian, Inc. access to this program.  By using this program,
 the user acknowledges that Gaussian, Inc. is engaged in the
 business of creating and licensing software in the field of
 computational chemistry and represents and warrants to the
 licensee that it is not a competitor of Gaussian, Inc. and that
 it will not use this program in any manner prohibited above.
 ---------------------------------------------------------------
  

 Cite this work as:
 Gaussian 16, Revision C.01,
 M. J. Frisch, G. W. Trucks, H. B. Schlegel, G. E. Scuseria, 
 M. A. Robb, J. R. Cheeseman, G. Scalmani, V. Barone, 
 G. A. Petersson, H. Nakatsuji, X. Li, M. Caricato, A. V. Marenich, 
 J. Bloino, B. G. Janesko, R. Gomperts, B. Mennucci, H. P. Hratchian, 
 J. V. Ortiz, A. F. Izmaylov, J. L. Sonnenberg, D. Williams-Young, 
 F. Ding, F. Lipparini, F. Egidi, J. Goings, B. Peng, A. Petrone, 
 T. Henderson, D. Ranasinghe, V. G. Zakrzewski, J. Gao, N. Rega, 
 G. Zheng, W. Liang, M. Hada, M. Ehara, K. Toyota, R. Fukuda, 
 J. Hasegawa, M. Ishida, T. Nakajima, Y. Honda, O. Kitao, H. Nakai, 
 T. Vreven, K. Throssell, J. A. Montgomery, Jr., J. E. Peralta, 
 F. Ogliaro, M. J. Bearpark, J. J. Heyd, E. N. Brothers, K. N. Kudin, 
 V. N. Staroverov, T. A. Keith, R. Kobayashi, J. Normand, 
 K. Raghavachari, A. P. Rendell, J. C. Burant, S. S. Iyengar, 
 J. Tomasi, M. Cossi, J. M. Millam, M. Klene, C. Adamo, R. Cammi, 
 J. W. Ochterski, R. L. Martin, K. Morokuma, O. Farkas, 
 J. B. Foresman, and D. J. Fox, Gaussian, Inc., Wallingford CT, 2019.
 
 ******************************************
 Gaussian 16:  ES64L-G16RevC.01  3-Jul-2019
                31-May-2024 
 ******************************************
 %mem=8000MB
 %nprocshared=2
 Will use up to    2 processors via shared memory.
 ----------------------------------------------------------------------
 # PBE1PBE Def2SVP EmpiricalDispersion=GD3BJ Geom=ModRedun Opt=(loose, 
 maxcycles=10) NoSymm scrf=(smd,solvent=Water)
 ----------------------------------------------------------------------
 1/6=10,7=-1,18=120,19=15,26=3,38=1/1,3;
 2/9=110,12=2,15=1,17=6,18=5,40=1/2;
 3/5=43,7=101,11=2,25=1,30=1,70=32201,71=1,72=1,74=-13,124=41/1,2,3;
 4//1;
 5/5=2,38=5,53=1/2;
 6/7=2,8=2,9=2,10=2,28=1/1;
 7/30=1/1,2,3,16;
 1/6=10,7=-1,18=20,19=15,26=3/3(2);
 2/9=110,15=1/2;
 99//99;
 2/9=110,15=1/2;
 3/5=43,7=101,11=2,25=1,30=1,70=32205,71=1,72=1,74=-13,124=41/1,2,3;
 4/5=5,16=3,69=1/1;
 5/5=2,38=5,53=1/2;
 7/30=1/1,2,3,16;
 1/6=10,7=-1,18=20,19=15,26=3/3(-5);
 2/9=110,15=1/2;
 6/7=2,8=2,9=2,10=2,19=2,28=1/1;
 99/9=1/99;
 ---------------------------------------
 TS_dOr2Us_ll_ad_0-5_0-1_conf299_opt_g16
 ---------------------------------------
 Symbolic Z-matrix:
 Charge = -1 Multiplicity = 1
 C                     5.32117  -0.49096  -0.40318 
 Cl                    4.79129  -1.77706  -2.01375 
 H                     6.26316  -1.04614  -0.33509 
 H                     4.72785  -0.64502   0.4797 
 H                     5.50181   0.52331  -0.70971 
 F                     3.50936   0.20369  -0.89753 
 
 Add virtual bond connecting atoms F6         and C1         Dist= 3.78D+00.
 Add virtual bond connecting atoms F6         and H4         Dist= 3.83D+00.
 Add virtual bond connecting atoms F6         and H5         Dist= 3.83D+00.
 The following ModRedundant input section has been read:
 B       1       2 2.1321 B                                                    
 B       1       2 F                                                           
 B       1       6 1.9961 B                                                    
 B       1       6 F                                                           
 
 Iteration  1 RMS(Cart)=  0.00237913 RMS(Int)=  0.00144668
 Iteration  2 RMS(Cart)=  0.00000260 RMS(Int)=  0.00144668
 Iteration  3 RMS(Cart)=  0.00000001 RMS(Int)=  0.00144668
 Iteration  1 RMS(Cart)=  0.00071988 RMS(Int)=  0.00051817
 Iteration  2 RMS(Cart)=  0.00025794 RMS(Int)=  0.00057460
 Iteration  3 RMS(Cart)=  0.00009239 RMS(Int)=  0.00061832
 Iteration  4 RMS(Cart)=  0.00003309 RMS(Int)=  0.00063628
 Iteration  5 RMS(Cart)=  0.00001185 RMS(Int)=  0.00064298
 Iteration  6 RMS(Cart)=  0.00000424 RMS(Int)=  0.00064541
 Iteration  7 RMS(Cart)=  0.00000152 RMS(Int)=  0.00064629
 Iteration  8 RMS(Cart)=  0.00000054 RMS(Int)=  0.00064660

 GradGradGradGradGradGradGradGradGradGradGradGradGradGradGradGradGradGrad
 Berny optimization.
 Initialization pass.
                           ----------------------------
                           !    Initial Parameters    !
                           ! (Angstroms and Degrees)  !
 --------------------------                            --------------------------
 ! Name  Definition              Value          Derivative Info.                !
 --------------------------------------------------------------------------------
 ! R1    R(1,2)                  2.1322         Frozen                          !
 ! R2    R(1,3)                  1.0955         estimate D2E/DX2                !
 ! R3    R(1,4)                  1.0752         estimate D2E/DX2                !
 ! R4    R(1,5)                  1.0752         estimate D2E/DX2                !
 ! R5    R(1,6)                  1.9961         Frozen                          !
 ! R6    R(4,6)                  2.0232         estimate D2E/DX2                !
 ! R7    R(5,6)                  2.0249         estimate D2E/DX2                !
 ! A1    A(2,1,3)               87.4289         estimate D2E/DX2                !
 ! A2    A(2,1,4)              113.4296         estimate D2E/DX2                !
 ! A3    A(2,1,5)              113.3762         estimate D2E/DX2                !
 ! A4    A(2,1,6)               78.1141         estimate D2E/DX2                !
 ! A5    A(3,1,4)              110.4552         estimate D2E/DX2                !
 ! A6    A(3,1,5)              110.4662         estimate D2E/DX2                !
 ! A7    A(4,1,5)              117.6402         estimate D2E/DX2                !
 ! A8    A(4,6,5)               54.0615         estimate D2E/DX2                !
 ! A9    L(3,1,6,2,-1)         165.543          estimate D2E/DX2                !
 ! A10   L(3,1,6,2,-2)         179.9323         estimate D2E/DX2                !
 ! D1    D(2,1,4,3)             96.284          estimate D2E/DX2                !
 ! D2    D(2,1,5,3)            -96.2667         estimate D2E/DX2                !
 ! D3    D(2,1,6,3)              0.2708         estimate D2E/DX2                !
 ! D4    D(2,1,5,4)            135.671          estimate D2E/DX2                !
 ! D5    D(2,1,6,4)            118.1601         estimate D2E/DX2                !
 ! D6    D(2,1,6,5)           -118.0666         estimate D2E/DX2                !
 ! D7    D(3,1,5,4)           -128.0623         estimate D2E/DX2                !
 --------------------------------------------------------------------------------
 Trust Radius=3.00D-01 FncErr=1.00D-07 GrdErr=1.00D-06 EigMax=2.50D+02 EigMin=1.00D-04
 Number of steps in this run=     10 maximum allowed number of steps=    100.
 GradGradGradGradGradGradGradGradGradGradGradGradGradGradGradGradGradGrad

                          Input orientation:                          
 ---------------------------------------------------------------------
 Center     Atomic      Atomic             Coordinates (Angstroms)
 Number     Number       Type             X           Y           Z
 ---------------------------------------------------------------------
      1          6           0        5.320151   -0.489439   -0.402437
      2         17           0        4.787693   -1.777290   -2.016128
      3          1           0        6.262006   -1.044918   -0.334834
      4          1           0        4.728133   -0.644571    0.481600
      5          1           0        5.503045    0.524849   -0.708619
      6          9           0        3.513612    0.199189   -0.899142
 ---------------------------------------------------------------------
                    Distance matrix (angstroms):
                    1          2          3          4          5
     1  C    0.000000
     2  Cl   2.132151   0.000000
     3  H    1.095544   2.353023   0.000000
     4  H    1.075209   2.743218   1.783147   0.000000
     5  H    1.075164   2.742471   1.783229   1.839743   0.000000
     6  F    1.996123   2.603345   3.069188   2.023225   2.024894
                    6
     6  F    0.000000
 Symmetry turned off by external request.
 Stoichiometry    CH3ClF(1-)
 Framework group  C1[X(CH3ClF)]
 Deg. of freedom    12
 Full point group                 C1      NOp   1
 Rotational constants (GHZ):          15.3819192           5.5479208           4.1927063
 Standard basis: def2SVP (5D, 7F)
    61 basis functions,   108 primitive gaussians,    64 cartesian basis functions
    18 alpha electrons       18 beta electrons
       nuclear repulsion energy        97.0567813002 Hartrees.
 NAtoms=    6 NActive=    6 NUniq=    6 SFac= 1.00D+00 NAtFMM=   60 NAOKFM=F Big=F
 Integral buffers will be    131072 words long.
 Raffenetti 2 integral format.
 Two-electron integral symmetry is turned off.
 Nuclear repulsion after empirical dispersion term =       97.0542040428 Hartrees.
 ------------------------------------------------------------------------------
 Polarizable Continuum Model (PCM)
 =================================
 Model                : PCM.
 Atomic radii         : SMD-Coulomb.
 Polarization charges : Total charges.
 Charge compensation  : None.
 Solution method      : On-the-fly selection.
 Cavity type          : VdW (van der Waals Surface) (Alpha=1.000).
 Cavity algorithm     : GePol (No added spheres)
                        Default sphere list used, NSphG=    6.
                        Lebedev-Laikov grids with approx.  5.0 points / Ang**2.
                        Smoothing algorithm: York/Karplus (Gamma=1.0000).
                        Polarization charges: spherical gaussians, with
                                              point-specific exponents (IZeta= 3).
                        Self-potential: point-specific (ISelfS= 7).
                        Self-field    : sphere-specific E.n sum rule (ISelfD= 2).
 1st derivatives      : Analytical E(r).r(x)/FMM algorithm (CHGder, D1EAlg=3).
                        Cavity 1st derivative terms included.
 Solvent              : Water, Eps=  78.355300 Eps(inf)=   1.777849
 ------------------------------------------------------------------------------
 Spheres list:
 ISph  on   Nord     Re0    Alpha      Xe            Ye            Ze
    1   C      1    1.8500  1.000      5.320151     -0.489439     -0.402437
    2  Cl      2    2.3800  1.000      4.787693     -1.777290     -2.016128
    3   H      3    1.2000  1.000      6.262006     -1.044918     -0.334834
    4   H      4    1.2000  1.000      4.728133     -0.644571      0.481600
    5   H      5    1.2000  1.000      5.503045      0.524849     -0.708619
    6   F      6    1.7300  1.000      3.513612      0.199189     -0.899142
 ------------------------------------------------------------------------------
 ------------------------------------------------------------------------------
 Atomic radii for non-electrostatic terms: SMD-CDS.
 ------------------------------------------------------------------------------
 Nuclear repulsion after PCM non-electrostatic terms =       97.0589050927 Hartrees.
 One-electron integrals computed using PRISM.
   1 Symmetry operations used in ECPInt.
 ECPInt:  NShTT=     435 NPrTT=    1711 LenC2=     435 LenP2D=    1468.
 LDataN:  DoStor=T MaxTD1= 4 Len=   56
 NBasis=    61 RedAO= T EigKep=  1.27D-02  NBF=    61
 NBsUse=    61 1.00D-06 EigRej= -1.00D+00 NBFU=    61
 ExpMin= 1.22D-01 ExpMax= 1.04D+04 ExpMxC= 1.57D+03 IAcc=3 IRadAn=         5 AccDes= 0.00D+00
 Harris functional with IExCor= 1009 and IRadAn=       5 diagonalized for initial guess.
 HarFok:  IExCor= 1009 AccDes= 0.00D+00 IRadAn=         5 IDoV= 1 UseB2=F ITyADJ=14
 ICtDFT=  3500011 ScaDFX=  1.000000  1.000000  1.000000  1.000000
 FoFCou: FMM=F IPFlag=           0 FMFlag=      100000 FMFlg1=           0
         NFxFlg=           0 DoJE=T BraDBF=F KetDBF=T FulRan=T
         wScrn=  0.000000 ICntrl=       500 IOpCl=  0 I1Cent=   200000004 NGrid=           0
         NMat0=    1 NMatS0=      1 NMatT0=    0 NMatD0=    1 NMtDS0=    0 NMtDT0=    0
 Symmetry not used in FoFCou.
 Keep R1 ints in memory in canonical form, NReq=3567974.
 Requested convergence on RMS density matrix=1.00D-08 within 128 cycles.
 Requested convergence on MAX density matrix=1.00D-06.
 Requested convergence on             energy=1.00D-06.
 No special actions if energy rises.
 Inv3:  Mode=1 IEnd=     1529388.
 Iteration    1 A*A^-1 deviation from unit magnitude is 2.66D-15 for    702.
 Iteration    1 A*A^-1 deviation from orthogonality  is 1.83D-15 for    255    127.
 Iteration    1 A^-1*A deviation from unit magnitude is 2.89D-15 for    702.
 Iteration    1 A^-1*A deviation from orthogonality  is 1.20D-15 for    162     63.
 Error on total polarization charges =  0.01186
 SCF Done:  E(RPBE1PBE) =  -599.426501937     A.U. after   12 cycles
            NFock= 12  Conv=0.35D-08     -V/T= 2.0028
 SMD-CDS (non-electrostatic) energy       (kcal/mol) =       2.95
 (included in total energy above)

 **********************************************************************

            Population analysis using the SCF Density.

 **********************************************************************

 Alpha  occ. eigenvalues -- -101.58858 -24.52863 -10.26386  -9.43783  -7.17806
 Alpha  occ. eigenvalues --   -7.17056  -7.17000  -0.93410  -0.75026  -0.65275
 Alpha  occ. eigenvalues --   -0.41704  -0.40542  -0.32766  -0.25945  -0.25433
 Alpha  occ. eigenvalues --   -0.21327  -0.19563  -0.18897
 Alpha virt. eigenvalues --    0.00824   0.12127   0.17672   0.17734   0.46976
 Alpha virt. eigenvalues --    0.51904   0.56264   0.58180   0.68535   0.70195
 Alpha virt. eigenvalues --    0.71387   0.77326   0.85733   0.87203   0.87296
 Alpha virt. eigenvalues --    0.89500   0.93993   0.96365   0.98268   1.15021
 Alpha virt. eigenvalues --    1.16604   1.29219   1.38137   1.39418   1.50641
 Alpha virt. eigenvalues --    1.59391   1.72964   1.73774   1.81027   1.83456
 Alpha virt. eigenvalues --    2.07096   2.09242   2.17897   2.45514   2.49233
 Alpha virt. eigenvalues --    2.78316   2.93054   2.98879   3.30076   3.30252
 Alpha virt. eigenvalues --    3.30336   3.30921   3.41505
          Condensed to atoms (all electrons):
               1          2          3          4          5          6
     1  C    4.624097   0.168213   0.349424   0.382251   0.382596   0.057956
     2  Cl   0.168213  17.353820  -0.058756   0.004816   0.004765  -0.043602
     3  H    0.349424  -0.058756   0.792790  -0.059764  -0.059651   0.013684
     4  H    0.382251   0.004816  -0.059764   0.639919  -0.005563  -0.012776
     5  H    0.382596   0.004765  -0.059651  -0.005563   0.639414  -0.012820
     6  F    0.057956  -0.043602   0.013684  -0.012776  -0.012820   9.728415
 Mulliken charges:
               1
     1  C    0.035462
     2  Cl  -0.429255
     3  H    0.022274
     4  H    0.051117
     5  H    0.051259
     6  F   -0.730857
 Sum of Mulliken charges =  -1.00000
 Mulliken charges with hydrogens summed into heavy atoms:
               1
     1  C    0.160112
     2  Cl  -0.429255
     6  F   -0.730857
 Electronic spatial extent (au):  <R**2>=           3332.0815
 Charge=             -1.0000 electrons
 Dipole moment (field-independent basis, Debye):
    X=            -18.3057    Y=              2.9166    Z=              7.2007  Tot=             19.8860
 Quadrupole moment (field-independent basis, Debye-Ang):
   XX=            -97.8038   YY=            -33.4140   ZZ=            -37.6044
   XY=             15.4182   XZ=             30.3766   YZ=             -7.0895
 Traceless Quadrupole moment (field-independent basis, Debye-Ang):
   XX=            -41.5297   YY=             22.8601   ZZ=             18.6697
   XY=             15.4182   XZ=             30.3766   YZ=             -7.0895
 Octapole moment (field-independent basis, Debye-Ang**2):
  XXX=           -658.2382  YYY=             90.9458  ZZZ=            122.0207  XYY=           -157.9525
  XXY=            105.9387  XXZ=            165.6825  XZZ=           -174.8831  YZZ=             39.7659
  YYZ=             47.3853  XYZ=            -35.7327
 Hexadecapole moment (field-independent basis, Debye-Ang**3):
 XXXX=          -4777.3376 YYYY=           -316.0532 ZZZZ=           -415.5513 XXXY=            794.3837
 XXXZ=           1061.7372 YYYX=            449.2748 YYYZ=           -163.5500 ZZZX=            570.9035
 ZZZY=           -166.5106 XXYY=           -812.9647 XXZZ=           -898.8548 YYZZ=           -135.2098
 XXYZ=           -226.6266 YYXZ=            224.3793 ZZXY=            197.7879
 N-N= 9.705890509267D+01 E-N=-1.629305866932D+03  KE= 5.977245653121D+02
   1 Symmetry operations used in ECPInt.
 ECPInt:  NShTT=     435 NPrTT=    1711 LenC2=     435 LenP2D=    1468.
 LDataN:  DoStor=T MaxTD1= 5 Len=  102
 D1PCM: PCM CHGder 1st derivatives, ID1Alg=3 FixD1E=F DoIter=F DoCFld=F I1PDM=0.
 Calling FoFJK, ICntrl=      2127 FMM=F ISym2X=0 I1Cent= 0 IOpClX= 0 NMat=1 NMatS=1 NMatT=0.
 -------------------------------------------------------------------
 Center     Atomic                   Forces (Hartrees/Bohr)
 Number     Number              X              Y              Z
 -------------------------------------------------------------------
      1        6           0.016289350   -0.034037649   -0.022819867
      2       17           0.013135442    0.006744189    0.015375673
      3        1           0.006435029   -0.003445530    0.000766704
      4        1          -0.006025581    0.002066693    0.007281390
      5        1          -0.000964687    0.009599663   -0.000471411
      6        9          -0.028869553    0.019072634   -0.000132489
 -------------------------------------------------------------------
 Cartesian Forces:  Max     0.034037649 RMS     0.014600405

 GradGradGradGradGradGradGradGradGradGradGradGradGradGradGradGradGradGrad
 Berny optimization.
 FormGI is forming the generalized inverse of G from B-inverse, IUseBI=4.
 Internal  Forces:  Max     0.029412162 RMS     0.010474970
 Search for a local minimum.
 Step number   1 out of a maximum of   10
 All quantities printed in internal units (Hartrees-Bohrs-Radians)
 Mixed Optimization -- RFO/linear search
 Second derivative matrix not updated -- first step.
 ITU=  0
     Eigenvalues ---    0.00833   0.03786   0.04118   0.06196   0.07288
     Eigenvalues ---    0.10674   0.12551   0.34019   0.34180   0.36120
     Eigenvalues --- 1000.000001000.000001000.000001000.000001000.00000
     Eigenvalues --- 1000.000001000.000001000.000001000.000001000.00000
     Eigenvalues --- 1000.000001000.000001000.000001000.00000
 RFO step:  Lambda=-6.13838742D-03 EMin= 8.33098228D-03
 Linear search not attempted -- first point.
 Iteration  1 RMS(Cart)=  0.06775932 RMS(Int)=  0.00394649
 Iteration  2 RMS(Cart)=  0.00246060 RMS(Int)=  0.00047131
 Iteration  3 RMS(Cart)=  0.00000143 RMS(Int)=  0.00047130
 Iteration  4 RMS(Cart)=  0.00000000 RMS(Int)=  0.00047130
 Iteration  1 RMS(Cart)=  0.00009726 RMS(Int)=  0.00006962
 Iteration  2 RMS(Cart)=  0.00003428 RMS(Int)=  0.00007716
 Iteration  3 RMS(Cart)=  0.00001208 RMS(Int)=  0.00008289
 Iteration  4 RMS(Cart)=  0.00000426 RMS(Int)=  0.00008520
 Iteration  5 RMS(Cart)=  0.00000150 RMS(Int)=  0.00008605
 Iteration  6 RMS(Cart)=  0.00000053 RMS(Int)=  0.00008635
 Variable       Old X    -DE/DX   Delta X   Delta X   Delta X     New X
                                 (Linear)    (Quad)   (Total)
    R1        4.02918  -0.01900   0.00000   0.00000   0.00000   4.02918
    R2        2.07028   0.00732   0.00000   0.02104   0.02104   2.09131
    R3        2.03185   0.00808   0.00000   0.02449   0.02456   2.05641
    R4        2.03177   0.00827   0.00000   0.02454   0.02455   2.05632
    R5        3.77213   0.02941   0.00000   0.00000   0.00000   3.77213
    R6        3.82334   0.00241   0.00000  -0.07266  -0.07325   3.75009
    R7        3.82650   0.00179   0.00000  -0.07314  -0.07350   3.75300
    A1        1.52592  -0.00561   0.00000  -0.01094  -0.01068   1.51524
    A2        1.97972   0.00311   0.00000   0.02479   0.02494   2.00466
    A3        1.97879   0.00310   0.00000   0.02652   0.02679   2.00558
    A4        1.36335   0.02524   0.00000   0.13125   0.13038   1.49373
    A5        1.92781   0.00418   0.00000  -0.01028  -0.01092   1.91688
    A6        1.92800   0.00454   0.00000  -0.01165  -0.01207   1.91593
    A7        2.05321  -0.00783   0.00000  -0.01894  -0.01980   2.03341
    A8        0.94355   0.00113   0.00000   0.02591   0.02626   0.96981
    A9        2.88927   0.01963   0.00000   0.12031   0.11970   3.00897
   A10        3.14041   0.00003   0.00000   0.00125   0.00094   3.14135
    D1        1.68047  -0.00325   0.00000  -0.00722  -0.00749   1.67298
    D2       -1.68017   0.00309   0.00000   0.00712   0.00729  -1.67288
    D3        0.00473   0.00025   0.00000  -0.00280  -0.00289   0.00183
    D4        2.36791  -0.00032   0.00000   0.04977   0.05028   2.41818
    D5        2.06228  -0.00181   0.00000  -0.00973  -0.01074   2.05155
    D6       -2.06065   0.00163   0.00000   0.00746   0.00848  -2.05217
    D7       -2.23511  -0.00341   0.00000   0.04265   0.04299  -2.19212
         Item               Value     Threshold  Converged?
 Maximum Force            0.016408     0.002500     NO 
 RMS     Force            0.006483     0.001667     NO 
 Maximum Displacement     0.171036     0.010000     NO 
 RMS     Displacement     0.066738     0.006667     NO 
 Predicted change in Energy=-3.214604D-03
 GradGradGradGradGradGradGradGradGradGradGradGradGradGradGradGradGradGrad

                          Input orientation:                          
 ---------------------------------------------------------------------
 Center     Atomic      Atomic             Coordinates (Angstroms)
 Number     Number       Type             X           Y           Z
 ---------------------------------------------------------------------
      1          6           0        5.299729   -0.506446   -0.432493
      2         17           0        4.862189   -1.845123   -2.033297
      3          1           0        6.263517   -1.040794   -0.330922
      4          1           0        4.699987   -0.653337    0.463570
      5          1           0        5.479857    0.523822   -0.732809
      6          9           0        3.509361    0.289697   -0.813610
 ---------------------------------------------------------------------
                    Distance matrix (angstroms):
                    1          2          3          4          5
     1  C    0.000000
     2  Cl   2.132151   0.000000
     3  H    1.106676   2.347071   0.000000
     4  H    1.088208   2.771463   1.796097   0.000000
     5  H    1.088158   2.772126   1.795455   1.850735   0.000000
     6  F    1.996124   2.806285   3.096541   1.984462   1.986000
                    6
     6  F    0.000000
 Symmetry turned off by external request.
 Stoichiometry    CH3ClF(1-)
 Framework group  C1[X(CH3ClF)]
 Deg. of freedom    12
 Full point group                 C1      NOp   1
 Rotational constants (GHZ):          16.7939190           4.8327769           3.8515582
 Standard basis: def2SVP (5D, 7F)
    61 basis functions,   108 primitive gaussians,    64 cartesian basis functions
    18 alpha electrons       18 beta electrons
       nuclear repulsion energy        94.7217021769 Hartrees.
 NAtoms=    6 NActive=    6 NUniq=    6 SFac= 1.00D+00 NAtFMM=   60 NAOKFM=F Big=F
 Integral buffers will be    131072 words long.
 Raffenetti 2 integral format.
 Two-electron integral symmetry is turned off.
 Nuclear repulsion after empirical dispersion term =       94.7191419811 Hartrees.
 ------------------------------------------------------------------------------
 Polarizable Continuum Model (PCM)
 =================================
 Model                : PCM.
 Atomic radii         : SMD-Coulomb.
 Polarization charges : Total charges.
 Charge compensation  : None.
 Solution method      : On-the-fly selection.
 Cavity type          : VdW (van der Waals Surface) (Alpha=1.000).
 Cavity algorithm     : GePol (No added spheres)
                        Default sphere list used, NSphG=    6.
                        Lebedev-Laikov grids with approx.  5.0 points / Ang**2.
                        Smoothing algorithm: York/Karplus (Gamma=1.0000).
                        Polarization charges: spherical gaussians, with
                                              point-specific exponents (IZeta= 3).
                        Self-potential: point-specific (ISelfS= 7).
                        Self-field    : sphere-specific E.n sum rule (ISelfD= 2).
 1st derivatives      : Analytical E(r).r(x)/FMM algorithm (CHGder, D1EAlg=3).
                        Cavity 1st derivative terms included.
 Solvent              : Water, Eps=  78.355300 Eps(inf)=   1.777849
 ------------------------------------------------------------------------------
 Spheres list:
 ISph  on   Nord     Re0    Alpha      Xe            Ye            Ze
    1   C      1    1.8500  1.000      5.299729     -0.506446     -0.432493
    2  Cl      2    2.3800  1.000      4.862189     -1.845123     -2.033297
    3   H      3    1.2000  1.000      6.263517     -1.040794     -0.330922
    4   H      4    1.2000  1.000      4.699987     -0.653337      0.463570
    5   H      5    1.2000  1.000      5.479857      0.523822     -0.732809
    6   F      6    1.7300  1.000      3.509361      0.289697     -0.813610
 ------------------------------------------------------------------------------
 ------------------------------------------------------------------------------
 Atomic radii for non-electrostatic terms: SMD-CDS.
 ------------------------------------------------------------------------------
 Nuclear repulsion after PCM non-electrostatic terms =       94.7238321069 Hartrees.
 One-electron integrals computed using PRISM.
   1 Symmetry operations used in ECPInt.
 ECPInt:  NShTT=     435 NPrTT=    1711 LenC2=     434 LenP2D=    1461.
 LDataN:  DoStor=T MaxTD1= 4 Len=   56
 NBasis=    61 RedAO= T EigKep=  1.32D-02  NBF=    61
 NBsUse=    61 1.00D-06 EigRej= -1.00D+00 NBFU=    61
 Initial guess from the checkpoint file:  "/home/thijs/scratch/Gau-2620894.chk"
 B after Tr=     0.053625   -0.027871    0.004647
         Rot=    1.000000    0.000458    0.000444   -0.000345 Ang=   0.08 deg.
 ExpMin= 1.22D-01 ExpMax= 1.04D+04 ExpMxC= 1.57D+03 IAcc=3 IRadAn=         5 AccDes= 0.00D+00
 Harris functional with IExCor= 1009 and IRadAn=       5 diagonalized for initial guess.
 HarFok:  IExCor= 1009 AccDes= 0.00D+00 IRadAn=         5 IDoV= 1 UseB2=F ITyADJ=14
 ICtDFT=  3500011 ScaDFX=  1.000000  1.000000  1.000000  1.000000
 FoFCou: FMM=F IPFlag=           0 FMFlag=      100000 FMFlg1=           0
         NFxFlg=           0 DoJE=T BraDBF=F KetDBF=T FulRan=T
         wScrn=  0.000000 ICntrl=       500 IOpCl=  0 I1Cent=   200000004 NGrid=           0
         NMat0=    1 NMatS0=      1 NMatT0=    0 NMatD0=    1 NMtDS0=    0 NMtDT0=    0
 Symmetry not used in FoFCou.
 Keep R1 ints in memory in canonical form, NReq=3567974.
 Requested convergence on RMS density matrix=1.00D-08 within 128 cycles.
 Requested convergence on MAX density matrix=1.00D-06.
 Requested convergence on             energy=1.00D-06.
 No special actions if energy rises.
 Inv3:  Mode=1 IEnd=     1525107.
 Iteration    1 A*A^-1 deviation from unit magnitude is 2.55D-15 for     20.
 Iteration    1 A*A^-1 deviation from orthogonality  is 2.51D-15 for    282     14.
 Iteration    1 A^-1*A deviation from unit magnitude is 2.44D-15 for    688.
 Iteration    1 A^-1*A deviation from orthogonality  is 1.16D-15 for    704    564.
 Error on total polarization charges =  0.01196
 SCF Done:  E(RPBE1PBE) =  -599.428827491     A.U. after   11 cycles
            NFock= 11  Conv=0.21D-08     -V/T= 2.0030
 SMD-CDS (non-electrostatic) energy       (kcal/mol) =       2.94
 (included in total energy above)
   1 Symmetry operations used in ECPInt.
 ECPInt:  NShTT=     435 NPrTT=    1711 LenC2=     434 LenP2D=    1461.
 LDataN:  DoStor=T MaxTD1= 5 Len=  102
 D1PCM: PCM CHGder 1st derivatives, ID1Alg=3 FixD1E=F DoIter=F DoCFld=F I1PDM=0.
 Calling FoFJK, ICntrl=      2127 FMM=F ISym2X=0 I1Cent= 0 IOpClX= 0 NMat=1 NMatS=1 NMatT=0.
 -------------------------------------------------------------------
 Center     Atomic                   Forces (Hartrees/Bohr)
 Number     Number              X              Y              Z
 -------------------------------------------------------------------
      1        6           0.029235528   -0.029657257   -0.009983857
      2       17           0.003948967    0.017355764    0.019466001
      3        1           0.000910512   -0.001195935   -0.000542277
      4        1          -0.001340229    0.001362738   -0.001875166
      5        1          -0.002693160   -0.000421110   -0.000055419
      6        9          -0.030061618    0.012555800   -0.007009282
 -------------------------------------------------------------------
 Cartesian Forces:  Max     0.030061618 RMS     0.014254286

 GradGradGradGradGradGradGradGradGradGradGradGradGradGradGradGradGradGrad
 Berny optimization.
 Using GEDIIS/GDIIS optimizer.
 FormGI is forming the generalized inverse of G from B-inverse, IUseBI=4.
 Internal  Forces:  Max     0.026325336 RMS     0.007783373
 Search for a local minimum.
 Step number   2 out of a maximum of   10
 All quantities printed in internal units (Hartrees-Bohrs-Radians)
 Mixed Optimization -- RFO/linear search
 Update second derivatives using D2CorX and points    1    2
 DE= -2.33D-03 DEPred=-3.21D-03 R= 7.23D-01
 TightC=F SS=  1.41D+00  RLast= 2.26D-01 DXNew= 5.0454D-01 6.7899D-01
 Trust test= 7.23D-01 RLast= 2.26D-01 DXMaxT set to 5.05D-01
 ITU=  1  0
 Use linear search instead of GDIIS.
     Eigenvalues ---    0.00434   0.03646   0.04361   0.06000   0.07298
     Eigenvalues ---    0.11174   0.13877   0.33473   0.34406   0.36177
     Eigenvalues --- 1000.000001000.000001000.000001000.000001000.00000
     Eigenvalues --- 1000.000001000.000001000.000001000.000001000.00000
     Eigenvalues --- 1000.000001000.000001000.000001000.00000
 RFO step:  Lambda=-1.37649221D-04 EMin= 4.34223551D-03
 Quartic linear search produced a step of -0.13857.
 Iteration  1 RMS(Cart)=  0.00999703 RMS(Int)=  0.00028026
 Iteration  2 RMS(Cart)=  0.00009129 RMS(Int)=  0.00010152
 Iteration  3 RMS(Cart)=  0.00000008 RMS(Int)=  0.00010152
 Iteration  1 RMS(Cart)=  0.00000548 RMS(Int)=  0.00000392
 Iteration  2 RMS(Cart)=  0.00000193 RMS(Int)=  0.00000435
 Iteration  3 RMS(Cart)=  0.00000068 RMS(Int)=  0.00000467
 Variable       Old X    -DE/DX   Delta X   Delta X   Delta X     New X
                                 (Linear)    (Quad)   (Total)
    R1        4.02918  -0.02633  -0.00000   0.00000   0.00000   4.02918
    R2        2.09131   0.00132  -0.00291   0.00651   0.00359   2.09491
    R3        2.05641  -0.00187  -0.00340   0.00185  -0.00152   2.05489
    R4        2.05632  -0.00138  -0.00340   0.00214  -0.00127   2.05505
    R5        3.77213   0.02187  -0.00000   0.00000  -0.00000   3.77212
    R6        3.75009   0.00681   0.01015  -0.02390  -0.01378   3.73631
    R7        3.75300   0.00549   0.01018  -0.02147  -0.01121   3.74178
    A1        1.51524  -0.00021   0.00148  -0.00207  -0.00053   1.51471
    A2        2.00466   0.00024  -0.00346  -0.00353  -0.00720   1.99746
    A3        2.00558  -0.00115  -0.00371  -0.00467  -0.00860   1.99698
    A4        1.49373   0.00422  -0.01807  -0.00114  -0.01916   1.47457
    A5        1.91688   0.00391   0.00151   0.01240   0.01384   1.93072
    A6        1.91593   0.00454   0.00167   0.01330   0.01509   1.93102
    A7        2.03341  -0.00476   0.00274  -0.00921  -0.00649   2.02692
    A8        0.96981  -0.00411  -0.00364   0.00439   0.00068   0.97049
    A9        3.00897   0.00401  -0.01659  -0.00321  -0.01968   2.98928
   A10        3.14135  -0.00003  -0.00013  -0.00125  -0.00151   3.13984
    D1        1.67298   0.00182   0.00104   0.00235   0.00329   1.67627
    D2       -1.67288  -0.00157  -0.00101  -0.00236  -0.00333  -1.67621
    D3        0.00183   0.00029   0.00040   0.00936   0.00971   0.01154
    D4        2.41818  -0.00710  -0.00697  -0.02360  -0.03054   2.38764
    D5        2.05155   0.00005   0.00149  -0.00039   0.00131   2.05286
    D6       -2.05217   0.00125  -0.00117   0.00190   0.00056  -2.05161
    D7       -2.19212  -0.00552  -0.00596  -0.02125  -0.02721  -2.21933
         Item               Value     Threshold  Converged?
 Maximum Force            0.002239     0.002500     YES
 RMS     Force            0.001011     0.001667     YES
 Maximum Displacement     0.023868     0.010000     NO 
 RMS     Displacement     0.010028     0.006667     NO 
 Predicted change in Energy=-1.008032D-04
 GradGradGradGradGradGradGradGradGradGradGradGradGradGradGradGradGradGrad

                          Input orientation:                          
 ---------------------------------------------------------------------
 Center     Atomic      Atomic             Coordinates (Angstroms)
 Number     Number       Type             X           Y           Z
 ---------------------------------------------------------------------
      1          6           0        5.306707   -0.504915   -0.426648
      2         17           0        4.852580   -1.834640   -2.030290
      3          1           0        6.268994   -1.047150   -0.332160
      4          1           0        4.697592   -0.647905    0.462719
      5          1           0        5.475545    0.525364   -0.731029
      6          9           0        3.513222    0.277067   -0.822152
 ---------------------------------------------------------------------
                    Distance matrix (angstroms):
                    1          2          3          4          5
     1  C    0.000000
     2  Cl   2.132151   0.000000
     3  H    1.108577   2.347342   0.000000
     4  H    1.087401   2.765404   1.805695   0.000000
     5  H    1.087488   2.765101   1.805952   1.845754   0.000000
     6  F    1.996123   2.777190   3.096437   1.977169   1.980067
                    6
     6  F    0.000000
 Symmetry turned off by external request.
 Stoichiometry    CH3ClF(1-)
 Framework group  C1[X(CH3ClF)]
 Deg. of freedom    12
 Full point group                 C1      NOp   1
 Rotational constants (GHZ):          16.5938437           4.9263645           3.8992600
 Standard basis: def2SVP (5D, 7F)
    61 basis functions,   108 primitive gaussians,    64 cartesian basis functions
    18 alpha electrons       18 beta electrons
       nuclear repulsion energy        95.0515095056 Hartrees.
 NAtoms=    6 NActive=    6 NUniq=    6 SFac= 1.00D+00 NAtFMM=   60 NAOKFM=F Big=F
 Integral buffers will be    131072 words long.
 Raffenetti 2 integral format.
 Two-electron integral symmetry is turned off.
 Nuclear repulsion after empirical dispersion term =       95.0489457481 Hartrees.
 ------------------------------------------------------------------------------
 Polarizable Continuum Model (PCM)
 =================================
 Model                : PCM.
 Atomic radii         : SMD-Coulomb.
 Polarization charges : Total charges.
 Charge compensation  : None.
 Solution method      : On-the-fly selection.
 Cavity type          : VdW (van der Waals Surface) (Alpha=1.000).
 Cavity algorithm     : GePol (No added spheres)
                        Default sphere list used, NSphG=    6.
                        Lebedev-Laikov grids with approx.  5.0 points / Ang**2.
                        Smoothing algorithm: York/Karplus (Gamma=1.0000).
                        Polarization charges: spherical gaussians, with
                                              point-specific exponents (IZeta= 3).
                        Self-potential: point-specific (ISelfS= 7).
                        Self-field    : sphere-specific E.n sum rule (ISelfD= 2).
 1st derivatives      : Analytical E(r).r(x)/FMM algorithm (CHGder, D1EAlg=3).
                        Cavity 1st derivative terms included.
 Solvent              : Water, Eps=  78.355300 Eps(inf)=   1.777849
 ------------------------------------------------------------------------------
 Spheres list:
 ISph  on   Nord     Re0    Alpha      Xe            Ye            Ze
    1   C      1    1.8500  1.000      5.306707     -0.504915     -0.426648
    2  Cl      2    2.3800  1.000      4.852580     -1.834640     -2.030290
    3   H      3    1.2000  1.000      6.268994     -1.047150     -0.332160
    4   H      4    1.2000  1.000      4.697592     -0.647905      0.462719
    5   H      5    1.2000  1.000      5.475545      0.525364     -0.731029
    6   F      6    1.7300  1.000      3.513222      0.277067     -0.822152
 ------------------------------------------------------------------------------
 ------------------------------------------------------------------------------
 Atomic radii for non-electrostatic terms: SMD-CDS.
 ------------------------------------------------------------------------------
 Nuclear repulsion after PCM non-electrostatic terms =       95.0536590531 Hartrees.
 One-electron integrals computed using PRISM.
   1 Symmetry operations used in ECPInt.
 ECPInt:  NShTT=     435 NPrTT=    1711 LenC2=     434 LenP2D=    1461.
 LDataN:  DoStor=T MaxTD1= 4 Len=   56
 NBasis=    61 RedAO= T EigKep=  1.31D-02  NBF=    61
 NBsUse=    61 1.00D-06 EigRej= -1.00D+00 NBFU=    61
 Initial guess from the checkpoint file:  "/home/thijs/scratch/Gau-2620894.chk"
 B after Tr=    -0.001911    0.005630    0.009514
         Rot=    1.000000   -0.000405   -0.000432    0.000205 Ang=  -0.07 deg.
 ExpMin= 1.22D-01 ExpMax= 1.04D+04 ExpMxC= 1.57D+03 IAcc=3 IRadAn=         5 AccDes= 0.00D+00
 Harris functional with IExCor= 1009 and IRadAn=       5 diagonalized for initial guess.
 HarFok:  IExCor= 1009 AccDes= 0.00D+00 IRadAn=         5 IDoV= 1 UseB2=F ITyADJ=14
 ICtDFT=  3500011 ScaDFX=  1.000000  1.000000  1.000000  1.000000
 FoFCou: FMM=F IPFlag=           0 FMFlag=      100000 FMFlg1=           0
         NFxFlg=           0 DoJE=T BraDBF=F KetDBF=T FulRan=T
         wScrn=  0.000000 ICntrl=       500 IOpCl=  0 I1Cent=   200000004 NGrid=           0
         NMat0=    1 NMatS0=      1 NMatT0=    0 NMatD0=    1 NMtDS0=    0 NMtDT0=    0
 Symmetry not used in FoFCou.
 Keep R1 ints in memory in canonical form, NReq=3567974.
 Requested convergence on RMS density matrix=1.00D-08 within 128 cycles.
 Requested convergence on MAX density matrix=1.00D-06.
 Requested convergence on             energy=1.00D-06.
 No special actions if energy rises.
 Inv3:  Mode=1 IEnd=     1525107.
 Iteration    1 A*A^-1 deviation from unit magnitude is 3.00D-15 for    711.
 Iteration    1 A*A^-1 deviation from orthogonality  is 2.03D-15 for    282     14.
 Iteration    1 A^-1*A deviation from unit magnitude is 3.00D-15 for    711.
 Iteration    1 A^-1*A deviation from orthogonality  is 1.26D-15 for    314     13.
 Error on total polarization charges =  0.01198
 SCF Done:  E(RPBE1PBE) =  -599.428980285     A.U. after   10 cycles
            NFock= 10  Conv=0.33D-08     -V/T= 2.0029
 SMD-CDS (non-electrostatic) energy       (kcal/mol) =       2.96
 (included in total energy above)
   1 Symmetry operations used in ECPInt.
 ECPInt:  NShTT=     435 NPrTT=    1711 LenC2=     434 LenP2D=    1461.
 LDataN:  DoStor=T MaxTD1= 5 Len=  102
 D1PCM: PCM CHGder 1st derivatives, ID1Alg=3 FixD1E=F DoIter=F DoCFld=F I1PDM=0.
 Calling FoFJK, ICntrl=      2127 FMM=F ISym2X=0 I1Cent= 0 IOpClX= 0 NMat=1 NMatS=1 NMatT=0.
 -------------------------------------------------------------------
 Center     Atomic                   Forces (Hartrees/Bohr)
 Number     Number              X              Y              Z
 -------------------------------------------------------------------
      1        6           0.027981487   -0.030611818   -0.011750995
      2       17           0.004872296    0.016156642    0.019061956
      3        1          -0.000283402    0.000339318    0.000052602
      4        1          -0.000628234    0.000932191   -0.001021689
      5        1          -0.001478113   -0.000303605    0.000135068
      6        9          -0.030464034    0.013487271   -0.006476942
 -------------------------------------------------------------------
 Cartesian Forces:  Max     0.030611818 RMS     0.014265310

 GradGradGradGradGradGradGradGradGradGradGradGradGradGradGradGradGradGrad
 Berny optimization.
 Using GEDIIS/GDIIS optimizer.
 FormGI is forming the generalized inverse of G from B-inverse, IUseBI=4.
 Internal  Forces:  Max     0.025464513 RMS     0.007769025
 Search for a local minimum.
 Step number   3 out of a maximum of   10
 All quantities printed in internal units (Hartrees-Bohrs-Radians)
 Mixed Optimization -- En-DIIS/RFO-DIIS
 Update second derivatives using D2CorX and points    1    2    3
 DE= -1.53D-04 DEPred=-1.01D-04 R= 1.52D+00
 TightC=F SS=  1.41D+00  RLast= 5.89D-02 DXNew= 8.4853D-01 1.7669D-01
 Trust test= 1.52D+00 RLast= 5.89D-02 DXMaxT set to 5.05D-01
 ITU=  1  1  0
 Use linear search instead of GDIIS.
     Eigenvalues ---    0.00492   0.02592   0.04258   0.06008   0.07215
     Eigenvalues ---    0.10359   0.12251   0.33548   0.35550   0.36211
     Eigenvalues --- 1000.000001000.000001000.000001000.000001000.00000
     Eigenvalues --- 1000.000001000.000001000.000001000.000001000.00000
     Eigenvalues --- 1000.000001000.000001000.000001000.00000
 RFO step:  Lambda=-5.66285039D-05 EMin= 4.92103230D-03
 Quartic linear search produced a step of  0.39444.
 Iteration  1 RMS(Cart)=  0.00633602 RMS(Int)=  0.00011358
 Iteration  2 RMS(Cart)=  0.00005170 RMS(Int)=  0.00009573
 Iteration  3 RMS(Cart)=  0.00000000 RMS(Int)=  0.00009573
 Iteration  1 RMS(Cart)=  0.00000856 RMS(Int)=  0.00000613
 Iteration  2 RMS(Cart)=  0.00000300 RMS(Int)=  0.00000679
 Iteration  3 RMS(Cart)=  0.00000105 RMS(Int)=  0.00000729
 Iteration  4 RMS(Cart)=  0.00000037 RMS(Int)=  0.00000749
 Variable       Old X    -DE/DX   Delta X   Delta X   Delta X     New X
                                 (Linear)    (Quad)   (Total)
    R1        4.02918  -0.02546   0.00000   0.00000  -0.00000   4.02918
    R2        2.09491  -0.00042   0.00142  -0.00232  -0.00091   2.09400
    R3        2.05489  -0.00144  -0.00060  -0.00095  -0.00152   2.05337
    R4        2.05505  -0.00112  -0.00050  -0.00092  -0.00141   2.05365
    R5        3.77212   0.02273  -0.00000   0.00000   0.00000   3.77213
    R6        3.73631   0.00663  -0.00544  -0.01922  -0.02474   3.71157
    R7        3.74178   0.00547  -0.00442  -0.01925  -0.02369   3.71809
    A1        1.51471  -0.00038  -0.00021   0.00906   0.00893   1.52364
    A2        1.99746   0.00033  -0.00284  -0.00185  -0.00494   1.99252
    A3        1.99698  -0.00079  -0.00339  -0.00295  -0.00654   1.99044
    A4        1.47457   0.00640  -0.00756   0.00279  -0.00486   1.46972
    A5        1.93072   0.00356   0.00546   0.00449   0.00992   1.94064
    A6        1.93102   0.00400   0.00595   0.00416   0.01014   1.94117
    A7        2.02692  -0.00462  -0.00256  -0.00737  -0.01012   2.01680
    A8        0.97049  -0.00388   0.00027   0.00253   0.00276   0.97325
    A9        2.98928   0.00602  -0.00776   0.01184   0.00407   2.99335
   A10        3.13984   0.00003  -0.00060   0.00011  -0.00054   3.13930
    D1        1.67627   0.00146   0.00130   0.01211   0.01332   1.68959
    D2       -1.67621  -0.00120  -0.00131  -0.01148  -0.01271  -1.68893
    D3        0.01154   0.00027   0.00383   0.00017   0.00397   0.01552
    D4        2.38764  -0.00588  -0.01205  -0.01528  -0.02715   2.36049
    D5        2.05286  -0.00049   0.00052  -0.00053  -0.00005   2.05281
    D6       -2.05161   0.00152   0.00022   0.00171   0.00196  -2.04965
    D7       -2.21933  -0.00469  -0.01073  -0.00380  -0.01444  -2.23377
         Item               Value     Threshold  Converged?
 Maximum Force            0.000720     0.002500     YES
 RMS     Force            0.000368     0.001667     YES
 Maximum Displacement     0.013823     0.010000     NO 
 RMS     Displacement     0.006359     0.006667     YES
 Predicted change in Energy=-4.078847D-05
 GradGradGradGradGradGradGradGradGradGradGradGradGradGradGradGradGradGrad

                          Input orientation:                          
 ---------------------------------------------------------------------
 Center     Atomic      Atomic             Coordinates (Angstroms)
 Number     Number       Type             X           Y           Z
 ---------------------------------------------------------------------
      1          6           0        5.311918   -0.507309   -0.425440
      2         17           0        4.848151   -1.831457   -2.030937
      3          1           0        6.274692   -1.047120   -0.327708
      4          1           0        4.693254   -0.644648    0.457218
      5          1           0        5.468230    0.523335   -0.732605
      6          9           0        3.518395    0.275020   -0.820089
 ---------------------------------------------------------------------
                    Distance matrix (angstroms):
                    1          2          3          4          5
     1  C    0.000000
     2  Cl   2.132151   0.000000
     3  H    1.108098   2.356097   0.000000
     4  H    1.086597   2.761055   1.810812   0.000000
     5  H    1.086744   2.759567   1.811257   1.838601   0.000000
     6  F    1.996124   2.769774   3.096395   1.964076   1.967529
                    6
     6  F    0.000000
 Symmetry turned off by external request.
 Stoichiometry    CH3ClF(1-)
 Framework group  C1[X(CH3ClF)]
 Deg. of freedom    12
 Full point group                 C1      NOp   1
 Rotational constants (GHZ):          16.5630825           4.9505668           3.9118885
 Standard basis: def2SVP (5D, 7F)
    61 basis functions,   108 primitive gaussians,    64 cartesian basis functions
    18 alpha electrons       18 beta electrons
       nuclear repulsion energy        95.1631950339 Hartrees.
 NAtoms=    6 NActive=    6 NUniq=    6 SFac= 1.00D+00 NAtFMM=   60 NAOKFM=F Big=F
 Integral buffers will be    131072 words long.
 Raffenetti 2 integral format.
 Two-electron integral symmetry is turned off.
 Nuclear repulsion after empirical dispersion term =       95.1606300932 Hartrees.
 ------------------------------------------------------------------------------
 Polarizable Continuum Model (PCM)
 =================================
 Model                : PCM.
 Atomic radii         : SMD-Coulomb.
 Polarization charges : Total charges.
 Charge compensation  : None.
 Solution method      : On-the-fly selection.
 Cavity type          : VdW (van der Waals Surface) (Alpha=1.000).
 Cavity algorithm     : GePol (No added spheres)
                        Default sphere list used, NSphG=    6.
                        Lebedev-Laikov grids with approx.  5.0 points / Ang**2.
                        Smoothing algorithm: York/Karplus (Gamma=1.0000).
                        Polarization charges: spherical gaussians, with
                                              point-specific exponents (IZeta= 3).
                        Self-potential: point-specific (ISelfS= 7).
                        Self-field    : sphere-specific E.n sum rule (ISelfD= 2).
 1st derivatives      : Analytical E(r).r(x)/FMM algorithm (CHGder, D1EAlg=3).
                        Cavity 1st derivative terms included.
 Solvent              : Water, Eps=  78.355300 Eps(inf)=   1.777849
 ------------------------------------------------------------------------------
 Spheres list:
 ISph  on   Nord     Re0    Alpha      Xe            Ye            Ze
    1   C      1    1.8500  1.000      5.311918     -0.507309     -0.425440
    2  Cl      2    2.3800  1.000      4.848151     -1.831457     -2.030937
    3   H      3    1.2000  1.000      6.274692     -1.047120     -0.327708
    4   H      4    1.2000  1.000      4.693254     -0.644648      0.457218
    5   H      5    1.2000  1.000      5.468230      0.523335     -0.732605
    6   F      6    1.7300  1.000      3.518395      0.275020     -0.820089
 ------------------------------------------------------------------------------
 ------------------------------------------------------------------------------
 Atomic radii for non-electrostatic terms: SMD-CDS.
 ------------------------------------------------------------------------------
 Nuclear repulsion after PCM non-electrostatic terms =       95.1653595983 Hartrees.
 One-electron integrals computed using PRISM.
   1 Symmetry operations used in ECPInt.
 ECPInt:  NShTT=     435 NPrTT=    1711 LenC2=     434 LenP2D=    1461.
 LDataN:  DoStor=T MaxTD1= 4 Len=   56
 NBasis=    61 RedAO= T EigKep=  1.31D-02  NBF=    61
 NBsUse=    61 1.00D-06 EigRej= -1.00D+00 NBFU=    61
 Initial guess from the checkpoint file:  "/home/thijs/scratch/Gau-2620894.chk"
 B after Tr=     0.006568    0.011124    0.017671
         Rot=    0.999999   -0.000689   -0.000830    0.000757 Ang=  -0.15 deg.
 Keep R1 ints in memory in canonical form, NReq=3567974.
 Requested convergence on RMS density matrix=1.00D-08 within 128 cycles.
 Requested convergence on MAX density matrix=1.00D-06.
 Requested convergence on             energy=1.00D-06.
 No special actions if energy rises.
 Inv3:  Mode=1 IEnd=     1516563.
 Iteration    1 A*A^-1 deviation from unit magnitude is 2.44D-15 for    700.
 Iteration    1 A*A^-1 deviation from orthogonality  is 1.80D-15 for    711    572.
 Iteration    1 A^-1*A deviation from unit magnitude is 2.66D-15 for    700.
 Iteration    1 A^-1*A deviation from orthogonality  is 1.21D-15 for    683    577.
 Error on total polarization charges =  0.01200
 SCF Done:  E(RPBE1PBE) =  -599.429033364     A.U. after    9 cycles
            NFock=  9  Conv=0.70D-08     -V/T= 2.0029
 SMD-CDS (non-electrostatic) energy       (kcal/mol) =       2.97
 (included in total energy above)
   1 Symmetry operations used in ECPInt.
 ECPInt:  NShTT=     435 NPrTT=    1711 LenC2=     434 LenP2D=    1461.
 LDataN:  DoStor=T MaxTD1= 5 Len=  102
 D1PCM: PCM CHGder 1st derivatives, ID1Alg=3 FixD1E=F DoIter=F DoCFld=F I1PDM=0.
 Calling FoFJK, ICntrl=      2127 FMM=F ISym2X=0 I1Cent= 0 IOpClX= 0 NMat=1 NMatS=1 NMatT=0.
 -------------------------------------------------------------------
 Center     Atomic                   Forces (Hartrees/Bohr)
 Number     Number              X              Y              Z
 -------------------------------------------------------------------
      1        6           0.027145208   -0.030674835   -0.012473426
      2       17           0.005756784    0.016107224    0.019686245
      3        1          -0.000235227    0.000157827   -0.000120183
      4        1          -0.000225953    0.000254452   -0.000416568
      5        1          -0.000505253   -0.000181821   -0.000061447
      6        9          -0.031935558    0.014337153   -0.006614620
 -------------------------------------------------------------------
 Cartesian Forces:  Max     0.031935558 RMS     0.014497871

 GradGradGradGradGradGradGradGradGradGradGradGradGradGradGradGradGradGrad
 Berny optimization.
 Using GEDIIS/GDIIS optimizer.
 FormGI is forming the generalized inverse of G from B-inverse, IUseBI=4.
 Internal  Forces:  Max     0.026091638 RMS     0.008026639
 Search for a local minimum.
 Step number   4 out of a maximum of   10
 All quantities printed in internal units (Hartrees-Bohrs-Radians)
 Mixed Optimization -- En-DIIS/RFO-DIIS
 Swapping is turned off.
 Update second derivatives using D2CorX and points    1    2    3    4
 DE= -5.31D-05 DEPred=-4.08D-05 R= 1.30D+00
 TightC=F SS=  1.41D+00  RLast= 5.46D-02 DXNew= 8.4853D-01 1.6382D-01
 Trust test= 1.30D+00 RLast= 5.46D-02 DXMaxT set to 5.05D-01
 ITU=  1  1  1  0
     Eigenvalues ---    0.00481   0.01570   0.04183   0.05937   0.07145
     Eigenvalues ---    0.10673   0.13254   0.33449   0.36194   0.36807
     Eigenvalues --- 1000.000001000.000001000.000001000.000001000.00000
     Eigenvalues --- 1000.000001000.000001000.000001000.000001000.00000
     Eigenvalues --- 1000.000001000.000001000.000001000.00000
 En-DIIS/RFO-DIIS/Sim-DIIS IScMMF=       -3 using points:     4    3
 RFO step:  Lambda=-2.55026053D-05.
 DidBck=F Rises=F RFO-DIIS coefs:    1.60025   -0.60025
 Iteration  1 RMS(Cart)=  0.00499389 RMS(Int)=  0.00006773
 Iteration  2 RMS(Cart)=  0.00001933 RMS(Int)=  0.00006185
 Iteration  3 RMS(Cart)=  0.00000000 RMS(Int)=  0.00006185
 Iteration  1 RMS(Cart)=  0.00000573 RMS(Int)=  0.00000411
 Iteration  2 RMS(Cart)=  0.00000201 RMS(Int)=  0.00000455
 Iteration  3 RMS(Cart)=  0.00000070 RMS(Int)=  0.00000489
 Variable       Old X    -DE/DX   Delta X   Delta X   Delta X     New X
                                 (Linear)    (Quad)   (Total)
    R1        4.02918  -0.02609  -0.00000   0.00000   0.00000   4.02918
    R2        2.09400  -0.00030  -0.00054  -0.00015  -0.00070   2.09330
    R3        2.05337  -0.00110  -0.00091   0.00018  -0.00072   2.05265
    R4        2.05365  -0.00085  -0.00084   0.00013  -0.00070   2.05294
    R5        3.77213   0.02369   0.00000   0.00000   0.00000   3.77213
    R6        3.71157   0.00705  -0.01485  -0.00359  -0.01848   3.69308
    R7        3.71809   0.00590  -0.01422  -0.00433  -0.01857   3.69952
    A1        1.52364  -0.00076   0.00536  -0.00234   0.00305   1.52669
    A2        1.99252   0.00031  -0.00297   0.00032  -0.00279   1.98973
    A3        1.99044  -0.00068  -0.00393   0.00049  -0.00354   1.98690
    A4        1.46972   0.00739  -0.00292   0.00714   0.00416   1.47388
    A5        1.94064   0.00352   0.00595   0.00006   0.00603   1.94668
    A6        1.94117   0.00391   0.00609  -0.00061   0.00550   1.94667
    A7        2.01680  -0.00453  -0.00607   0.00114  -0.00507   2.01173
    A8        0.97325  -0.00386   0.00166   0.00159   0.00323   0.97648
    A9        2.99335   0.00663   0.00244   0.00480   0.00721   3.00057
   A10        3.13930   0.00006  -0.00032   0.00060   0.00028   3.13958
    D1        1.68959   0.00100   0.00800  -0.00260   0.00537   1.69496
    D2       -1.68893  -0.00074  -0.00763   0.00285  -0.00475  -1.69367
    D3        0.01552   0.00026   0.00238  -0.00356  -0.00118   0.01434
    D4        2.36049  -0.00532  -0.01630   0.00232  -0.01385   2.34663
    D5        2.05281  -0.00089  -0.00003  -0.00207  -0.00218   2.05063
    D6       -2.04965   0.00177   0.00118   0.00175   0.00299  -2.04667
    D7       -2.23377  -0.00458  -0.00867  -0.00052  -0.00911  -2.24288
         Item               Value     Threshold  Converged?
 Maximum Force            0.000502     0.002500     YES
 RMS     Force            0.000221     0.001667     YES
 Maximum Displacement     0.011262     0.010000     NO 
 RMS     Displacement     0.004991     0.006667     YES
 Predicted change in Energy=-1.191962D-05
 GradGradGradGradGradGradGradGradGradGradGradGradGradGradGradGradGradGrad

                          Input orientation:                          
 ---------------------------------------------------------------------
 Center     Atomic      Atomic             Coordinates (Angstroms)
 Number     Number       Type             X           Y           Z
 ---------------------------------------------------------------------
      1          6           0        5.313931   -0.509150   -0.425670
      2         17           0        4.850086   -1.832948   -2.031433
      3          1           0        6.277320   -1.046684   -0.325663
      4          1           0        4.689116   -0.643865    0.452577
      5          1           0        5.462601    0.521512   -0.735242
      6          9           0        3.521586    0.278955   -0.814129
 ---------------------------------------------------------------------
                    Distance matrix (angstroms):
                    1          2          3          4          5
     1  C    0.000000
     2  Cl   2.132151   0.000000
     3  H    1.107728   2.358995   0.000000
     4  H    1.086213   2.758648   1.813922   0.000000
     5  H    1.086371   2.756586   1.814046   1.835020   0.000000
     6  F    1.996124   2.776126   3.096770   1.954295   1.957701
                    6
     6  F    0.000000
 Symmetry turned off by external request.
 Stoichiometry    CH3ClF(1-)
 Framework group  C1[X(CH3ClF)]
 Deg. of freedom    12
 Full point group                 C1      NOp   1
 Rotational constants (GHZ):          16.6330444           4.9297200           3.9023246
 Standard basis: def2SVP (5D, 7F)
    61 basis functions,   108 primitive gaussians,    64 cartesian basis functions
    18 alpha electrons       18 beta electrons
       nuclear repulsion energy        95.1246937769 Hartrees.
 NAtoms=    6 NActive=    6 NUniq=    6 SFac= 1.00D+00 NAtFMM=   60 NAOKFM=F Big=F
 Integral buffers will be    131072 words long.
 Raffenetti 2 integral format.
 Two-electron integral symmetry is turned off.
 Nuclear repulsion after empirical dispersion term =       95.1221289872 Hartrees.
 ------------------------------------------------------------------------------
 Polarizable Continuum Model (PCM)
 =================================
 Model                : PCM.
 Atomic radii         : SMD-Coulomb.
 Polarization charges : Total charges.
 Charge compensation  : None.
 Solution method      : On-the-fly selection.
 Cavity type          : VdW (van der Waals Surface) (Alpha=1.000).
 Cavity algorithm     : GePol (No added spheres)
                        Default sphere list used, NSphG=    6.
                        Lebedev-Laikov grids with approx.  5.0 points / Ang**2.
                        Smoothing algorithm: York/Karplus (Gamma=1.0000).
                        Polarization charges: spherical gaussians, with
                                              point-specific exponents (IZeta= 3).
                        Self-potential: point-specific (ISelfS= 7).
                        Self-field    : sphere-specific E.n sum rule (ISelfD= 2).
 1st derivatives      : Analytical E(r).r(x)/FMM algorithm (CHGder, D1EAlg=3).
                        Cavity 1st derivative terms included.
 Solvent              : Water, Eps=  78.355300 Eps(inf)=   1.777849
 ------------------------------------------------------------------------------
 Spheres list:
 ISph  on   Nord     Re0    Alpha      Xe            Ye            Ze
    1   C      1    1.8500  1.000      5.313931     -0.509150     -0.425670
    2  Cl      2    2.3800  1.000      4.850086     -1.832948     -2.031433
    3   H      3    1.2000  1.000      6.277320     -1.046684     -0.325663
    4   H      4    1.2000  1.000      4.689116     -0.643865      0.452577
    5   H      5    1.2000  1.000      5.462601      0.521512     -0.735242
    6   F      6    1.7300  1.000      3.521586      0.278955     -0.814129
 ------------------------------------------------------------------------------
 ------------------------------------------------------------------------------
 Atomic radii for non-electrostatic terms: SMD-CDS.
 ------------------------------------------------------------------------------
 Nuclear repulsion after PCM non-electrostatic terms =       95.1268697681 Hartrees.
 One-electron integrals computed using PRISM.
   1 Symmetry operations used in ECPInt.
 ECPInt:  NShTT=     435 NPrTT=    1711 LenC2=     434 LenP2D=    1461.
 LDataN:  DoStor=T MaxTD1= 4 Len=   56
 NBasis=    61 RedAO= T EigKep=  1.31D-02  NBF=    61
 NBsUse=    61 1.00D-06 EigRej= -1.00D+00 NBFU=    61
 Initial guess from the checkpoint file:  "/home/thijs/scratch/Gau-2620894.chk"
 B after Tr=     0.006917    0.005680    0.009836
         Rot=    1.000000   -0.000317   -0.000378    0.000417 Ang=  -0.07 deg.
 Keep R1 ints in memory in canonical form, NReq=3567974.
 Requested convergence on RMS density matrix=1.00D-08 within 128 cycles.
 Requested convergence on MAX density matrix=1.00D-06.
 Requested convergence on             energy=1.00D-06.
 No special actions if energy rises.
 Inv3:  Mode=1 IEnd=     1516563.
 Iteration    1 A*A^-1 deviation from unit magnitude is 3.00D-15 for    701.
 Iteration    1 A*A^-1 deviation from orthogonality  is 1.47D-15 for    696    551.
 Iteration    1 A^-1*A deviation from unit magnitude is 3.00D-15 for    701.
 Iteration    1 A^-1*A deviation from orthogonality  is 1.34D-15 for    703    554.
 Error on total polarization charges =  0.01201
 SCF Done:  E(RPBE1PBE) =  -599.429047685     A.U. after    9 cycles
            NFock=  9  Conv=0.59D-08     -V/T= 2.0029
 SMD-CDS (non-electrostatic) energy       (kcal/mol) =       2.97
 (included in total energy above)
   1 Symmetry operations used in ECPInt.
 ECPInt:  NShTT=     435 NPrTT=    1711 LenC2=     434 LenP2D=    1461.
 LDataN:  DoStor=T MaxTD1= 5 Len=  102
 D1PCM: PCM CHGder 1st derivatives, ID1Alg=3 FixD1E=F DoIter=F DoCFld=F I1PDM=0.
 Calling FoFJK, ICntrl=      2127 FMM=F ISym2X=0 I1Cent= 0 IOpClX= 0 NMat=1 NMatS=1 NMatT=0.
 -------------------------------------------------------------------
 Center     Atomic                   Forces (Hartrees/Bohr)
 Number     Number              X              Y              Z
 -------------------------------------------------------------------
      1        6           0.027310063   -0.030889246   -0.012700503
      2       17           0.005853267    0.016478809    0.020098740
      3        1          -0.000117412    0.000039923   -0.000107855
      4        1           0.000029815   -0.000150546   -0.000160785
      5        1           0.000003702   -0.000170096   -0.000177493
      6        9          -0.033079435    0.014691156   -0.006952104
 -------------------------------------------------------------------
 Cartesian Forces:  Max     0.033079435 RMS     0.014775368

 GradGradGradGradGradGradGradGradGradGradGradGradGradGradGradGradGradGrad
 Berny optimization.
 Using GEDIIS/GDIIS optimizer.
 FormGI is forming the generalized inverse of G from B-inverse, IUseBI=4.
 Internal  Forces:  Max     0.026650537 RMS     0.008173955
 Search for a local minimum.
 Step number   5 out of a maximum of   10
 All quantities printed in internal units (Hartrees-Bohrs-Radians)
 Mixed Optimization -- En-DIIS/RFO-DIIS
 Swapping is turned off.
 Update second derivatives using D2CorX and points    1    2    3    4    5
 DE= -1.43D-05 DEPred=-1.19D-05 R= 1.20D+00
 TightC=F SS=  1.41D+00  RLast= 3.51D-02 DXNew= 8.4853D-01 1.0527D-01
 Trust test= 1.20D+00 RLast= 3.51D-02 DXMaxT set to 5.05D-01
 ITU=  1  1  1  1  0
     Eigenvalues ---    0.00460   0.01402   0.04215   0.05893   0.07107
     Eigenvalues ---    0.10894   0.12019   0.34036   0.36234   0.37322
     Eigenvalues --- 1000.000001000.000001000.000001000.000001000.00000
     Eigenvalues --- 1000.000001000.000001000.000001000.000001000.00000
     Eigenvalues --- 1000.000001000.000001000.000001000.00000
 En-DIIS/RFO-DIIS/Sim-DIIS IScMMF=       -3 using points:     5    4    3
 RFO step:  Lambda=-4.70795046D-06.
 DidBck=F Rises=F RFO-DIIS coefs:    1.46972   -0.64047    0.17075
 Iteration  1 RMS(Cart)=  0.00201853 RMS(Int)=  0.00001530
 Iteration  2 RMS(Cart)=  0.00000233 RMS(Int)=  0.00001468
 Iteration  3 RMS(Cart)=  0.00000000 RMS(Int)=  0.00001468
 Iteration  1 RMS(Cart)=  0.00000078 RMS(Int)=  0.00000056
 Variable       Old X    -DE/DX   Delta X   Delta X   Delta X     New X
                                 (Linear)    (Quad)   (Total)
    R1        4.02918  -0.02665   0.00000   0.00000  -0.00000   4.02918
    R2        2.09330  -0.00014  -0.00017  -0.00021  -0.00038   2.09292
    R3        2.05265  -0.00102  -0.00008  -0.00033  -0.00041   2.05223
    R4        2.05294  -0.00077  -0.00009  -0.00033  -0.00042   2.05252
    R5        3.77213   0.02409  -0.00000   0.00000  -0.00000   3.77212
    R6        3.69308   0.00752  -0.00446  -0.00007  -0.00453   3.68856
    R7        3.69952   0.00639  -0.00468   0.00048  -0.00419   3.69533
    A1        1.52669  -0.00072  -0.00009  -0.00030  -0.00040   1.52629
    A2        1.98973   0.00024  -0.00047  -0.00093  -0.00135   1.98838
    A3        1.98690  -0.00076  -0.00055  -0.00093  -0.00145   1.98545
    A4        1.47388   0.00721   0.00278   0.00002   0.00281   1.47669
    A5        1.94668   0.00350   0.00114  -0.00012   0.00101   1.94768
    A6        1.94667   0.00391   0.00085  -0.00018   0.00067   1.94734
    A7        2.01173  -0.00449  -0.00065   0.00187   0.00124   2.01296
    A8        0.97648  -0.00397   0.00105   0.00040   0.00145   0.97794
    A9        3.00057   0.00649   0.00269  -0.00028   0.00242   3.00298
   A10        3.13958   0.00006   0.00022  -0.00012   0.00009   3.13966
    D1        1.69496   0.00100   0.00025  -0.00084  -0.00059   1.69437
    D2       -1.69367  -0.00074  -0.00006   0.00087   0.00080  -1.69288
    D3        0.01434   0.00026  -0.00123   0.00086  -0.00038   0.01396
    D4        2.34663  -0.00532  -0.00187  -0.00044  -0.00234   2.34430
    D5        2.05063  -0.00098  -0.00102  -0.00102  -0.00203   2.04860
    D6       -2.04667   0.00188   0.00107   0.00110   0.00217  -2.04449
    D7       -2.24288  -0.00458  -0.00181  -0.00131  -0.00313  -2.24601
         Item               Value     Threshold  Converged?
 Maximum Force            0.000253     0.002500     YES
 RMS     Force            0.000114     0.001667     YES
 Maximum Displacement     0.005182     0.010000     YES
 RMS     Displacement     0.002019     0.006667     YES
 Predicted change in Energy=-1.589897D-06
 Optimization completed.
    -- Stationary point found.
                           ----------------------------
                           !   Optimized Parameters   !
                           ! (Angstroms and Degrees)  !
 --------------------------                            --------------------------
 ! Name  Definition              Value          Derivative Info.                !
 --------------------------------------------------------------------------------
 ! R1    R(1,2)                  2.1322         -DE/DX =   -0.0267              !
 ! R2    R(1,3)                  1.1077         -DE/DX =   -0.0001              !
 ! R3    R(1,4)                  1.0862         -DE/DX =   -0.001               !
 ! R4    R(1,5)                  1.0864         -DE/DX =   -0.0008              !
 ! R5    R(1,6)                  1.9961         -DE/DX =    0.0241              !
 ! R6    R(4,6)                  1.9543         -DE/DX =    0.0075              !
 ! R7    R(5,6)                  1.9577         -DE/DX =    0.0064              !
 ! A1    A(2,1,3)               87.473          -DE/DX =   -0.0007              !
 ! A2    A(2,1,4)              114.0031         -DE/DX =    0.0002              !
 ! A3    A(2,1,5)              113.8409         -DE/DX =   -0.0008              !
 ! A4    A(2,1,6)               84.4468         -DE/DX =    0.0072              !
 ! A5    A(3,1,4)              111.5364         -DE/DX =    0.0035              !
 ! A6    A(3,1,5)              111.5358         -DE/DX =    0.0039              !
 ! A7    A(4,1,5)              115.2636         -DE/DX =   -0.0045              !
 ! A8    A(4,6,5)               55.9485         -DE/DX =   -0.004               !
 ! A9    L(3,1,6,2,-1)         171.9198         -DE/DX =    0.0065              !
 ! A10   L(3,1,6,2,-2)         179.8844         -DE/DX =    0.0001              !
 ! D1    D(2,1,4,3)             97.1141         -DE/DX =    0.001               !
 ! D2    D(2,1,5,3)            -97.0403         -DE/DX =   -0.0007              !
 ! D3    D(2,1,6,3)              0.8216         -DE/DX =    0.0003              !
 ! D4    D(2,1,5,4)            134.4522         -DE/DX =   -0.0053              !
 ! D5    D(2,1,6,4)            117.4924         -DE/DX =   -0.001               !
 ! D6    D(2,1,6,5)           -117.2653         -DE/DX =    0.0019              !
 ! D7    D(3,1,5,4)           -128.5074         -DE/DX =   -0.0046              !
 --------------------------------------------------------------------------------
 GradGradGradGradGradGradGradGradGradGradGradGradGradGradGradGradGradGrad

                          Input orientation:                          
 ---------------------------------------------------------------------
 Center     Atomic      Atomic             Coordinates (Angstroms)
 Number     Number       Type             X           Y           Z
 ---------------------------------------------------------------------
      1          6           0        5.313931   -0.509150   -0.425670
      2         17           0        4.850086   -1.832948   -2.031433
      3          1           0        6.277320   -1.046684   -0.325663
      4          1           0        4.689116   -0.643865    0.452577
      5          1           0        5.462601    0.521512   -0.735242
      6          9           0        3.521586    0.278955   -0.814129
 ---------------------------------------------------------------------
                    Distance matrix (angstroms):
                    1          2          3          4          5
     1  C    0.000000
     2  Cl   2.132151   0.000000
     3  H    1.107728   2.358995   0.000000
     4  H    1.086213   2.758648   1.813922   0.000000
     5  H    1.086371   2.756586   1.814046   1.835020   0.000000
     6  F    1.996124   2.776126   3.096770   1.954295   1.957701
                    6
     6  F    0.000000
 Symmetry turned off by external request.
 Stoichiometry    CH3ClF(1-)
 Framework group  C1[X(CH3ClF)]
 Deg. of freedom    12
 Full point group                 C1      NOp   1
 Rotational constants (GHZ):          16.6330444           4.9297200           3.9023246

 **********************************************************************

            Population analysis using the SCF Density.

 **********************************************************************

 Alpha  occ. eigenvalues -- -101.59777 -24.53072 -10.26593  -9.44687  -7.18718
 Alpha  occ. eigenvalues --   -7.17950  -7.17909  -0.93629  -0.75672  -0.64997
 Alpha  occ. eigenvalues --   -0.41143  -0.40733  -0.32930  -0.26111  -0.26051
 Alpha  occ. eigenvalues --   -0.21504  -0.20562  -0.19124
 Alpha virt. eigenvalues --    0.00354   0.12126   0.17447   0.17763   0.46237
 Alpha virt. eigenvalues --    0.52666   0.55648   0.58262   0.67934   0.69786
 Alpha virt. eigenvalues --    0.70618   0.75819   0.85361   0.86564   0.87166
 Alpha virt. eigenvalues --    0.88781   0.92478   0.96598   0.97971   1.15683
 Alpha virt. eigenvalues --    1.16611   1.29022   1.35641   1.38809   1.47295
 Alpha virt. eigenvalues --    1.60899   1.70448   1.72636   1.81897   1.86958
 Alpha virt. eigenvalues --    2.04670   2.05063   2.16825   2.45758   2.46656
 Alpha virt. eigenvalues --    2.75511   2.92495   2.94843   3.29700   3.29931
 Alpha virt. eigenvalues --    3.30273   3.30970   3.41082
          Condensed to atoms (all electrons):
               1          2          3          4          5          6
     1  C    4.680231   0.167644   0.338344   0.373136   0.373793   0.043380
     2  Cl   0.167644  17.330989  -0.057616   0.004608   0.004496  -0.028083
     3  H    0.338344  -0.057616   0.802601  -0.060104  -0.059897   0.013809
     4  H    0.373136   0.004608  -0.060104   0.643961  -0.006836  -0.009849
     5  H    0.373793   0.004496  -0.059897  -0.006836   0.643314  -0.009948
     6  F    0.043380  -0.028083   0.013809  -0.009849  -0.009948   9.725150
 Mulliken charges:
               1
     1  C    0.023471
     2  Cl  -0.422038
     3  H    0.022864
     4  H    0.055085
     5  H    0.055077
     6  F   -0.734459
 Sum of Mulliken charges =  -1.00000
 Mulliken charges with hydrogens summed into heavy atoms:
               1
     1  C    0.156496
     2  Cl  -0.422038
     6  F   -0.734459
 Electronic spatial extent (au):  <R**2>=           3380.9923
 Charge=             -1.0000 electrons
 Dipole moment (field-independent basis, Debye):
    X=            -18.4590    Y=              2.6241    Z=              6.8113  Tot=             19.8498
 Quadrupole moment (field-independent basis, Debye-Ang):
   XX=            -99.4072   YY=            -33.6269   ZZ=            -36.9655
   XY=             14.5302   XZ=             29.0442   YZ=             -6.7891
 Traceless Quadrupole moment (field-independent basis, Debye-Ang):
   XX=            -42.7407   YY=             23.0396   ZZ=             19.7010
   XY=             14.5302   XZ=             29.0442   YZ=             -6.7891
 Octapole moment (field-independent basis, Debye-Ang**2):
  XXX=           -673.3071  YYY=             92.1367  ZZZ=            120.5211  XYY=           -159.9009
  XXY=            104.1384  XXZ=            161.3896  XZZ=           -173.4854  YZZ=             39.8345
  YYZ=             47.2305  XYZ=            -34.7098
 Hexadecapole moment (field-independent basis, Debye-Ang**3):
 XXXX=          -4912.7716 YYYY=           -333.4709 ZZZZ=           -414.1164 XXXY=            804.3988
 XXXZ=           1056.6576 YYYX=            461.7917 YYYZ=           -167.9138 ZZZX=            571.7558
 ZZZY=           -170.4907 XXYY=           -829.9904 XXZZ=           -899.6318 YYZZ=           -137.7742
 XXYZ=           -225.1572 YYXZ=            226.1814 ZZXY=            200.6072
 N-N= 9.512686976807D+01 E-N=-1.625201402808D+03  KE= 5.976754812317D+02
 Unable to Open any file for archive entry.
 1\1\GINC-DALE\FOpt\RPBE1PBE\def2SVP\C1H3Cl1F1(1-)\THIJS\31-May-2024\0\
 \# PBE1PBE Def2SVP EmpiricalDispersion=GD3BJ Geom=ModRedun Opt=(loose,
  maxcycles=10) NoSymm scrf=(smd,solvent=Water)\\TS_dOr2Us_ll_ad_0-5_0-
 1_conf299_opt_g16\\-1,1\C,5.3139311929,-0.5091503994,-0.4256695174\Cl,
 4.8500855351,-1.8329481932,-2.0314328054\H,6.2773201115,-1.046684143,-
 0.3256634174\H,4.6891160621,-0.6438646648,0.4525772887\H,5.4626006559,
 0.5215120031,-0.7352423198\F,3.5215864526,0.2789553973,-0.8141292286\\
 Version=ES64L-G16RevC.01\HF=-599.4290477\RMSD=5.864e-09\RMSF=1.478e-02
 \Dipole=1.5091619,-0.7425146,0.2488262\Quadrupole=-31.7766315,17.12939
 27,14.6472387,10.8028745,21.5936197,-5.0475241\PG=C01 [X(C1H3Cl1F1)]\\
 @
 The archive entry for this job was punched.


 TIMES HAVE CHANGED. IN THE BIBLE WHEN AN ASS
 SPOKE IT WAS CONSIDERED A MIRACLE.
 Job cpu time:       0 days  0 hours  1 minutes 16.5 seconds.
 Elapsed time:       0 days  0 hours  0 minutes 45.2 seconds.
 File lengths (MBytes):  RWF=     15 Int=      0 D2E=      0 Chk=      2 Scr=      1
 Normal termination of Gaussian 16 at Fri May 31 17:51:05 2024.
