      -----------------------------------------------------------      
     |                   =====================                   |     
     |                           x T B                           |     
     |                   =====================                   |     
     |                         S. Grimme                         |     
     |          Mulliken Center for Theoretical Chemistry        |     
     |                    University of Bonn                     |     
      -----------------------------------------------------------      

   * xtb version 6.3.3 (71d3805) compiled by 'conda@b85dec0bf610' on 2021-01-07

   xtb is free software: you can redistribute it and/or modify it under
   the terms of the GNU Lesser General Public License as published by
   the Free Software Foundation, either version 3 of the License, or
   (at your option) any later version.
   
   xtb is distributed in the hope that it will be useful,
   but WITHOUT ANY WARRANTY; without even the implied warranty of
   MERCHANTABILITY or FITNESS FOR A PARTICULAR PURPOSE.  See the
   GNU Lesser General Public License for more details.
   
   Cite this work as:
   * C. Bannwarth, E. Caldeweyher, S. Ehlert, A. Hansen, P. Pracht,
     J. Seibert, S. Spicher, S. Grimme, WIREs Comput. Mol. Sci., 2020,
     e01493. DOI: 10.1002/wcms.1493
   
   for GFN2-xTB:
   * S. Grimme, C. Bannwarth, P. Shushkov, J. Chem. Theory Comput., 2017,
     13, 1989-2009. DOI: 10.1021/acs.jctc.7b00118
   for GFN1-xTB:
   * C. Bannwarth, S. Ehlert and S. Grimme., J. Chem. Theory Comput., 2019,
     15, 1652-1671. DOI: 10.1021/acs.jctc.8b01176
   for GFN0-xTB:
   * P. Pracht, E. Caldeweyher, S. Ehlert, S. Grimme, ChemRxiv, 2019, preprint.
     DOI: 10.26434/chemrxiv.8326202.v1
   for GFN-FF:
   * S. Spicher and S. Grimme, Angew. Chem. Int. Ed., 2020, 59, 15665-15673.
     DOI: 10.1002/anie.202004239
   
   for DFT-D4:
   * E. Caldeweyher, C. Bannwarth and S. Grimme, J. Chem. Phys., 2017,
     147, 034112. DOI: 10.1063/1.4993215
   * E. Caldeweyher, S. Ehlert, A. Hansen, H. Neugebauer, S. Spicher,
     C. Bannwarth and S. Grimme, J. Chem. Phys., 2019, 150, 154122.
     DOI: 10.1063/1.5090222
   * E. Caldeweyher, J.-M. Mewes, S. Ehlert and S. Grimme, Phys. Chem. Chem. Phys.
     2020, 22, 8499-8512. DOI: 10.1039/D0CP00502A
   
   for sTDA-xTB:
   * S. Grimme and C. Bannwarth, J. Chem. Phys., 2016, 145, 054103.
     DOI: 10.1063/1.4959605
   
   in the mass-spec context:
   * V. Asgeirsson, C. Bauer and S. Grimme, Chem. Sci., 2017, 8, 4879.
     DOI: 10.1039/c7sc00601b
   * J. Koopman and S. Grimme, ACS Omega 2019, 4, 12, 15120-15133.
     DOI: 10.1021/acsomega.9b02011
   
   for metadynamics refer to:
   * S. Grimme, J. Chem. Theory Comput., 2019, 155, 2847-2862
     DOI: 10.1021/acs.jctc.9b00143
   
   with help from (in alphabetical order)
   C. Bannwarth, F. Bohle, G. Brandenburg, E. Caldeweyher, M. Checinski,
   S. Dohm, S. Ehlert, S. Ehrlich, F. März, H. Neugebauer, J. Pisarek,
   P. Pracht, P. Shushkov, and S. Spicher.
   
 * started run on 2024/05/31 at 17:47:22.884     

           -------------------------------------------------
          |                Calculation Setup                |
           -------------------------------------------------

          program call               : /home/thijs/miniconda3/envs/ts-tools/bin/xtb p0_CFH3_conf0_opt_xtb.xyz --chrg 0 --uhf 0 --opt --gbsa Water
          hostname                   : dale
          coordinate file            : p0_CFH3_conf0_opt_xtb.xyz
          omp threads                :                     4
          number of atoms            :                     5
          number of electrons        :                    14
          charge                     :                     0
          spin                       :                   0.0
          first test random number   :      0.61474801143303

   ID    Z sym.   atoms
    1    6 C      1
    2    9 F      2
    3    1 H      3-5

           -------------------------------------------------
          |                 G F N 2 - x T B                 |
           -------------------------------------------------

        Reference                      10.1021/acs.jctc.8b01176
      * Hamiltonian:
        H0-scaling (s, p, d)           1.850000    2.230000    2.230000
        zeta-weighting                 0.500000
      * Dispersion:
        s8                             2.700000
        a1                             0.520000
        a2                             5.000000
        s9                             5.000000
      * Repulsion:
        kExp                           1.500000    1.000000
        rExp                           1.000000
      * Coulomb:
        alpha                          2.000000
        third order                    shell-resolved
        anisotropic                    true
        a3                             3.000000
        a5                             4.000000
        cn-shift                       1.200000
        cn-exp                         4.000000
        max-rad                        5.000000

      * Solvation model:               GBSA
        Solvent                        Water
        Parameter file                 internal GFN2-xTB/GBSA
        Dielectric constant                8.0200E+01
        Reference state                gsolv [1 M gas/solution]
        Free energy shift                  1.8574E-03 Eh       1.1656E+00 kcal/mol
        Temperature                        2.9815E+02 K
        Density                            1.0000E+00 kg/L
        Solvent mass                       1.8000E+01 g/mol
        Interaction kernel             Still
        Born radius scaling (c1)           1.5524E+00
        Born radii integrator          GBOBC
        Born offset                        2.4628E-02 a0       4.6540E-02 AA
        H-bond correction              true
        Ion screening                  false
        Surface tension                    1.0000E-05 Eh       1.5569E+01 dyn/cm
        Grid points                               230 per atom

          ...................................................
          :                      SETUP                      :
          :.................................................:
          :  # basis functions                  11          :
          :  # atomic orbitals                  11          :
          :  # shells                            7          :
          :  # electrons                        14          :
          :  max. iterations                   250          :
          :  Hamiltonian                  GFN2-xTB          :
          :  restarted?                      false          :
          :  GBSA solvation                   true          :
          :  PC potential                    false          :
          :  electronic temp.          300.0000000     K    :
          :  accuracy                    1.0000000          :
          :  -> integral cutoff          0.2500000E+02      :
          :  -> integral neglect         0.1000000E-07      :
          :  -> SCF convergence          0.1000000E-05 Eh   :
          :  -> wf. convergence          0.1000000E-03 e    :
          :  Broyden damping             0.4000000          :
          ...................................................

 iter      E             dE          RMSdq      gap      omega  full diag
   1     -8.4304180 -0.843042E+01  0.499E+00   13.94       0.0  T
   2     -8.4457564 -0.153384E-01  0.253E+00   13.45       1.0  T
   3     -8.4460355 -0.279116E-03  0.855E-01   13.50       1.0  T
   4     -8.4460788 -0.432951E-04  0.129E-01   13.51       1.0  T
   5     -8.4460803 -0.146712E-05  0.164E-02   13.51       2.7  T
   6     -8.4460804 -0.126633E-06  0.401E-03   13.51      11.1  T
   7     -8.4460804 -0.269388E-08  0.717E-04   13.51      62.4  T
   8     -8.4460804 -0.642475E-09  0.278E-04   13.51     160.7  T

   *** convergence criteria satisfied after 8 iterations ***

         #    Occupation            Energy/Eh            Energy/eV
      -------------------------------------------------------------
         1        2.0000           -0.8109641             -22.0675
         2        2.0000           -0.6146102             -16.7244
         3        2.0000           -0.5429772             -14.7752
         4        2.0000           -0.5375417             -14.6273
         5        2.0000           -0.5362641             -14.5925
         6        2.0000           -0.4600154             -12.5177
         7        2.0000           -0.4582664             -12.4701 (HOMO)
         8                          0.0381601               1.0384 (LUMO)
         9                          0.1058261               2.8797
        10                          0.1708259               4.6484
        11                          0.1782930               4.8516
      -------------------------------------------------------------
                  HL-Gap            0.4964265 Eh           13.5085 eV
             Fermi-level           -0.2100531 Eh           -5.7158 eV

 SCC (total)                   0 d,  0 h,  0 min,  0.004 sec
 SCC setup                      ...        0 min,  0.000 sec ( 12.443%)
 Dispersion                     ...        0 min,  0.000 sec (  1.168%)
 classical contributions        ...        0 min,  0.000 sec (  0.845%)
 integral evaluation            ...        0 min,  0.001 sec ( 14.577%)
 iterations                     ...        0 min,  0.002 sec ( 51.776%)
 molecular gradient             ...        0 min,  0.000 sec ( 13.789%)
 printout                       ...        0 min,  0.000 sec (  4.940%)

         :::::::::::::::::::::::::::::::::::::::::::::::::::::
         ::                     SUMMARY                     ::
         :::::::::::::::::::::::::::::::::::::::::::::::::::::
         :: total energy              -8.393976113294 Eh    ::
         :: total w/o Gsasa/hb        -8.395305227051 Eh    ::
         :: gradient norm              0.025912152982 Eh/a0 ::
         :: HOMO-LUMO gap             13.508452529061 eV    ::
         ::.................................................::
         :: SCC energy                -8.446080409908 Eh    ::
         :: -> isotropic ES            0.017965321353 Eh    ::
         :: -> anisotropic ES          0.000244133225 Eh    ::
         :: -> anisotropic XC         -0.001027313104 Eh    ::
         :: -> dispersion             -0.000766106992 Eh    ::
         :: -> Gsolv                  -0.002560893782 Eh    ::
         ::    -> Gborn               -0.003890007538 Eh    ::
         ::    -> Gsasa                0.000299392072 Eh    ::
         ::    -> Ghb                 -0.000827721442 Eh    ::
         ::    -> Gshift               0.001857443127 Eh    ::
         :: repulsion energy           0.052104283925 Eh    ::
         :: add. restraining           0.000000000000 Eh    ::
         :: total charge              -0.000000000000 e     ::
         :::::::::::::::::::::::::::::::::::::::::::::::::::::

      ----------------------------------------------------------- 
     |                   =====================                   |
     |                        A N C O P T                        |
     |                   =====================                   |
     |               Approximate Normal Coordinate               |
     |                Rational Function Optimizer                |
      ----------------------------------------------------------- 

          ...................................................
          :                      SETUP                      :
          :.................................................:
          :   optimization level            normal          :
          :   max. optcycles                   200          :
          :   ANC micro-cycles                  20          :
          :   degrees of freedom                 9          :
          :.................................................:
          :   RF solver                   davidson          :
          :   write xtbopt.log                true          :
          :   linear?                        false          :
          :   energy convergence         0.5000000E-05 Eh   :
          :   grad. convergence          0.1000000E-02 Eh/α :
          :   maximium RF displ.         1.0000000          :
          :   Hlow (freq-cutoff)         0.1000000E-01      :
          :   Hmax (freq-cutoff)         5.0000000          :
          :   S6 in model hess.         20.0000000          :
          ...................................................

generating ANC from model Hessian ...
Using Lindh-Hessian (1995)
 Shifting diagonal of input Hessian by    0.0000000000000000     
 Lowest  eigenvalues of input Hessian
    0.000000    0.000000    0.000000    0.000000    0.000000    0.000000
    0.094137    0.098769    0.125172    0.127955    0.145634    0.434458
    1.054183    1.069856    1.415620
 Highest eigenvalues
    0.127955    0.145634    0.434458    1.054183    1.069856    1.415620


........................................................................
.............................. CYCLE    1 ..............................
........................................................................
   1     -8.4460804 -0.844608E+01  0.135E-05   13.51       0.0  T
   2     -8.4460804 -0.461853E-13  0.698E-06   13.51    6405.7  T
   3     -8.4460804 -0.355271E-14  0.116E-06   13.51   38651.4  T
     SCC iter.                  ...        0 min,  0.001 sec
     gradient                   ...        0 min,  0.000 sec
 * total energy  :    -8.3939761 Eh     change       -0.7803003E-10 Eh
   gradient norm :     0.0259123 Eh/α   predicted     0.0000000E+00 (-100.00%)
   displ. norm   :     0.0958044 α      lambda       -0.1971250E-02
   maximum displ.:     0.0509528 α      in ANC's #2, #6, #5, ...

........................................................................
.............................. CYCLE    2 ..............................
........................................................................
   1     -8.4523199 -0.845232E+01  0.289E-01   13.87       0.0  T
   2     -8.4523214 -0.152698E-05  0.172E-01   13.87       1.0  T
   3     -8.4523221 -0.748733E-06  0.802E-03   13.87       5.6  T
   4     -8.4523221 -0.610078E-08  0.427E-03   13.87      10.5  T
   5     -8.4523221 -0.196782E-08  0.718E-04   13.87      62.3  T
   6     -8.4523221 -0.661053E-10  0.478E-05   13.87     935.6  T
     SCC iter.                  ...        0 min,  0.000 sec
     gradient                   ...        0 min,  0.000 sec
 * total energy  :    -8.3951125 Eh     change       -0.1136380E-02 Eh
   gradient norm :     0.0063553 Eh/α   predicted    -0.9946722E-03 ( -12.47%)
   displ. norm   :     0.0181016 α      lambda       -0.9530480E-04
   maximum displ.:     0.0142913 α      in ANC's #6, #5, #3, ...

........................................................................
.............................. CYCLE    3 ..............................
........................................................................
   1     -8.4540663 -0.845407E+01  0.503E-02   13.89       0.0  T
   2     -8.4540665 -0.171592E-06  0.297E-02   13.89       1.5  T
   3     -8.4540665 -0.319607E-07  0.263E-03   13.89      17.0  T
   4     -8.4540665 -0.488779E-09  0.116E-03   13.89      38.7  T
   5     -8.4540665 -0.859952E-10  0.752E-05   13.89     594.5  T
   6     -8.4540665 -0.174438E-11  0.163E-05   13.89    2740.5  T
     SCC iter.                  ...        0 min,  0.000 sec
     gradient                   ...        0 min,  0.000 sec
 * total energy  :    -8.3951600 Eh     change       -0.4750615E-04 Eh
   gradient norm :     0.0015528 Eh/α   predicted    -0.4766815E-04 (   0.34%)
   displ. norm   :     0.0022753 α      lambda       -0.1958062E-05
   maximum displ.:     0.0016529 α      in ANC's #9, #6, #5, ...

........................................................................
.............................. CYCLE    4 ..............................
........................................................................
   1     -8.4539805 -0.845398E+01  0.921E-03   13.84       0.0  T
   2     -8.4539805 -0.668849E-08  0.530E-03   13.84       8.4  T
   3     -8.4539805 -0.227606E-08  0.615E-04   13.84      72.7  T
   4     -8.4539805 -0.489333E-10  0.137E-04   13.84     325.7  T
     SCC iter.                  ...        0 min,  0.000 sec
     gradient                   ...        0 min,  0.000 sec
 * total energy  :    -8.3951619 Eh     change       -0.1896826E-05 Eh
   gradient norm :     0.0005070 Eh/α   predicted    -0.9803550E-06 ( -48.32%)
   displ. norm   :     0.0011889 α      lambda       -0.3188441E-06
   maximum displ.:     0.0008607 α      in ANC's #9, #1, #4, ...

   *** GEOMETRY OPTIMIZATION CONVERGED AFTER 4 ITERATIONS ***

------------------------------------------------------------------------
 total energy gain   :        -0.0011858 Eh       -0.7441 kcal/mol
 total RMSD          :         0.0481778 a0        0.0255 Å
 total power (kW/mol):        -0.7783182 (step) -468.5288 (real)
------------------------------------------------------------------------

 ANCopt (total)                0 d,  0 h,  0 min,  0.007 sec
 optimizer setup                ...        0 min,  0.000 sec (  2.012%)
 model hessian                  ...        0 min,  0.001 sec (  9.644%)
 ANC generation                 ...        0 min,  0.000 sec (  2.563%)
 coordinate transformation      ...        0 min,  0.000 sec (  0.152%)
 single point calculation       ...        0 min,  0.005 sec ( 77.274%)
 optimization log               ...        0 min,  0.000 sec (  1.996%)
 hessian update                 ...        0 min,  0.000 sec (  0.202%)
 rational function              ...        0 min,  0.000 sec (  2.992%)

================
 final structure:
================
5
 xtb: 6.3.3 (71d3805)
C        -0.07771396401900    0.00726558176797   -0.00421893483656
F         1.29095013436924   -0.11903921667874    0.07053267285802
H        -0.29386489389389    0.91914530796963   -0.55885689119583
H        -0.46085220832914   -0.87087726546164   -0.52189787065660
H        -0.45861906812721    0.06360559240278    1.01444102383097

 Bond Distances (Angstroems)
 ---------------------------
C1-F2=1.3765         C1-H3=1.0890         C1-H4=1.0890         C1-H5=1.0890         F2-C1=1.3765         H3-C1=1.0890         
H4-C1=1.0890         H5-C1=1.0890         
 C  H  Rav=1.0890 sigma=0.0000  Rmin=1.0890  Rmax=1.0890     3
 F  C  Rav=1.3765 sigma=0.0000  Rmin=1.3765  Rmax=1.3765     1

 selected bond angles (degree)
 --------------------
H3-C1-F2=107.57                H4-C1-F2=107.56                H4-C1-H3=111.30                H5-C1-F2=107.56                
H5-C1-H3=111.33                H5-C1-H4=111.30                

 selected dihedral angles (degree)
 ---------------------------------

           -------------------------------------------------
          |                Final Singlepoint                |
           -------------------------------------------------

          ...................................................
          :                      SETUP                      :
          :.................................................:
          :  # basis functions                  11          :
          :  # atomic orbitals                  11          :
          :  # shells                            7          :
          :  # electrons                        14          :
          :  max. iterations                   250          :
          :  Hamiltonian                  GFN2-xTB          :
          :  restarted?                      false          :
          :  GBSA solvation                   true          :
          :  PC potential                    false          :
          :  electronic temp.          300.0000000     K    :
          :  accuracy                    1.0000000          :
          :  -> integral cutoff          0.2500000E+02      :
          :  -> integral neglect         0.1000000E-07      :
          :  -> SCF convergence          0.1000000E-05 Eh   :
          :  -> wf. convergence          0.1000000E-03 e    :
          :  Broyden damping             0.4000000          :
          ...................................................

 iter      E             dE          RMSdq      gap      omega  full diag
   1     -8.4539805 -0.845398E+01  0.282E-05   13.84       0.0  T
   2     -8.4539805 -0.515143E-13  0.177E-05   13.84    2530.1  T
   3     -8.4539805 -0.337508E-13  0.188E-06   13.84   23763.0  T

   *** convergence criteria satisfied after 3 iterations ***

         #    Occupation            Energy/Eh            Energy/eV
      -------------------------------------------------------------
         1        2.0000           -0.8124075             -22.1067
         2        2.0000           -0.6165773             -16.7779
         3        2.0000           -0.5426990             -14.7676
         4        2.0000           -0.5395190             -14.6811
         5        2.0000           -0.5395098             -14.6808
         6        2.0000           -0.4593893             -12.5006
         7        2.0000           -0.4593743             -12.5002 (HOMO)
         8                          0.0490849               1.3357 (LUMO)
         9                          0.1287952               3.5047
        10                          0.2047855               5.5725
        11                          0.2049228               5.5762
      -------------------------------------------------------------
                  HL-Gap            0.5084592 Eh           13.8359 eV
             Fermi-level           -0.2051447 Eh           -5.5823 eV

 SCC (total)                   0 d,  0 h,  0 min,  0.001 sec
 SCC setup                      ...        0 min,  0.000 sec ( 17.963%)
 Dispersion                     ...        0 min,  0.000 sec (  1.278%)
 classical contributions        ...        0 min,  0.000 sec (  0.450%)
 integral evaluation            ...        0 min,  0.000 sec ( 22.068%)
 iterations                     ...        0 min,  0.000 sec ( 29.038%)
 molecular gradient             ...        0 min,  0.000 sec ( 21.519%)
 printout                       ...        0 min,  0.000 sec (  6.999%)

         :::::::::::::::::::::::::::::::::::::::::::::::::::::
         ::                     SUMMARY                     ::
         :::::::::::::::::::::::::::::::::::::::::::::::::::::
         :: total energy              -8.395161896226 Eh    ::
         :: total w/o Gsasa/hb        -8.396455825825 Eh    ::
         :: gradient norm              0.000508615601 Eh/a0 ::
         :: HOMO-LUMO gap             13.835878603556 eV    ::
         ::.................................................::
         :: SCC energy                -8.453980545987 Eh    ::
         :: -> isotropic ES            0.018143549462 Eh    ::
         :: -> anisotropic ES         -0.000220937019 Eh    ::
         :: -> anisotropic XC         -0.001534571418 Eh    ::
         :: -> dispersion             -0.000763573021 Eh    ::
         :: -> Gsolv                  -0.002561520055 Eh    ::
         ::    -> Gborn               -0.003855449654 Eh    ::
         ::    -> Gsasa                0.000288473374 Eh    ::
         ::    -> Ghb                 -0.000851986901 Eh    ::
         ::    -> Gshift               0.001857443127 Eh    ::
         :: repulsion energy           0.058818638182 Eh    ::
         :: add. restraining           0.000000000000 Eh    ::
         :: total charge               0.000000000000 e     ::
         :::::::::::::::::::::::::::::::::::::::::::::::::::::

           -------------------------------------------------
          |                Property Printout                |
           -------------------------------------------------

    * Orbital Energies and Occupations

         #    Occupation            Energy/Eh            Energy/eV
      -------------------------------------------------------------
         1        2.0000           -0.8124075             -22.1067
         2        2.0000           -0.6165773             -16.7779
         3        2.0000           -0.5426990             -14.7676
         4        2.0000           -0.5395190             -14.6811
         5        2.0000           -0.5395098             -14.6808
         6        2.0000           -0.4593893             -12.5006
         7        2.0000           -0.4593743             -12.5002 (HOMO)
         8                          0.0490849               1.3357 (LUMO)
         9                          0.1287952               3.5047
        10                          0.2047855               5.5725
        11                          0.2049228               5.5762
      -------------------------------------------------------------
                  HL-Gap            0.5084592 Eh           13.8359 eV
             Fermi-level           -0.2051447 Eh           -5.5823 eV

     #   Z          covCN         q      C6AA      α(0)
     1   6 C        3.557     0.046    20.708     6.642
     2   9 F        0.783    -0.288    12.180     4.122
     3   1 H        0.925     0.081     1.972     2.196
     4   1 H        0.925     0.081     1.973     2.196
     5   1 H        0.925     0.081     1.972     2.196

 Mol. C6AA /au·bohr⁶  :        148.065608
 Mol. C8AA /au·bohr⁸  :       2832.673583
 Mol. α(0) /au        :         17.352858


Wiberg/Mayer (AO) data.
largest (>0.10) Wiberg bond orders for each atom

 ---------------------------------------------------------------------------
     #   Z sym  total        # sym  WBO       # sym  WBO       # sym  WBO
 ---------------------------------------------------------------------------
     1   6 C    3.868 --     4 H    0.980     5 H    0.980     3 H    0.980
                             2 F    0.928
     2   9 F    0.967 --     1 C    0.928
     3   1 H    0.993 --     1 C    0.980
     4   1 H    0.993 --     1 C    0.980
     5   1 H    0.993 --     1 C    0.980
 ---------------------------------------------------------------------------

Topologies differ in total number of bonds
Writing topology from bond orders to xtbtopo.mol

molecular dipole:
                 x           y           z       tot (Debye)
 q only:       -0.893       0.082      -0.049
   full:       -0.972       0.090      -0.053       2.485
molecular quadrupole (traceless):
                xx          xy          yy          xz          yz          zz
 q only:       -2.018       0.281       1.000      -0.166       0.015       1.017
  q+dip:       -3.907       0.544       1.937      -0.322       0.029       1.970
   full:       -3.189       0.444       1.581      -0.263       0.024       1.608

           -------------------------------------------------
          |                Geometry Summary                 |
           -------------------------------------------------

      molecular mass/u    :       34.0329613
   center of mass at/Å    :        0.6572927      -0.0605745       0.0359209
  moments of inertia/u·Å² :        0.3259476E+01   0.1935653E+02   0.1935710E+02
rotational constants/cm⁻¹ :        0.5171885E+01   0.8709017E+00   0.8708758E+00

 * 4 selected distances

     #   Z          #   Z                                           value/Å
     1   6 C        2   9 F                                       1.3765108 (max)
     1   6 C        3   1 H                                       1.0889762 (min)
     1   6 C        4   1 H                                       1.0890001
     1   6 C        5   1 H                                       1.0890046

 * 2 distinct bonds (by element types)

   Z      Z             #   av. dist./Å        max./Å        min./Å
   1 H    6 C           3     1.0889936     1.0890046     1.0889762
   6 C    9 F           1     1.3765108     1.3765108     1.3765108


optimized geometry written to: xtbopt.xyz


           -------------------------------------------------
          | TOTAL ENERGY               -8.395161896226 Eh   |
          | GRADIENT NORM               0.000508615601 Eh/α |
          | HOMO-LUMO GAP              13.835878603556 eV   |
           -------------------------------------------------

------------------------------------------------------------------------
 * finished run on 2024/05/31 at 17:47:22.946     
------------------------------------------------------------------------
 total:
 * wall-time:     0 d,  0 h,  0 min,  0.062 sec
 *  cpu-time:     0 d,  0 h,  0 min,  0.280 sec
 * ratio c/w:     4.531 speedup
 SCF:
 * wall-time:     0 d,  0 h,  0 min,  0.004 sec
 *  cpu-time:     0 d,  0 h,  0 min,  0.027 sec
 * ratio c/w:     6.969 speedup
 ANC optimizer:
 * wall-time:     0 d,  0 h,  0 min,  0.008 sec
 *  cpu-time:     0 d,  0 h,  0 min,  0.057 sec
 * ratio c/w:     6.984 speedup

