 Entering Gaussian System, Link 0=/opt/gaussian/g16/C01/g16/g16
 Input=p0_CFH3_conf0_opt_g16.com
 Output=p0_CFH3_conf0_opt_g16.log
 Initial command:
 /opt/gaussian/g16/C01/g16/l1.exe "/home/thijs/scratch/Gau-2619655.inp" -scrdir="/home/thijs/scratch/"
 Entering Link 1 = /opt/gaussian/g16/C01/g16/l1.exe PID=   2619656.
  
 Copyright (c) 1988-2019, Gaussian, Inc.  All Rights Reserved.
  
 This is part of the Gaussian(R) 16 program.  It is based on
 the Gaussian(R) 09 system (copyright 2009, Gaussian, Inc.),
 the Gaussian(R) 03 system (copyright 2003, Gaussian, Inc.),
 the Gaussian(R) 98 system (copyright 1998, Gaussian, Inc.),
 the Gaussian(R) 94 system (copyright 1995, Gaussian, Inc.),
 the Gaussian 92(TM) system (copyright 1992, Gaussian, Inc.),
 the Gaussian 90(TM) system (copyright 1990, Gaussian, Inc.),
 the Gaussian 88(TM) system (copyright 1988, Gaussian, Inc.),
 the Gaussian 86(TM) system (copyright 1986, Carnegie Mellon
 University), and the Gaussian 82(TM) system (copyright 1983,
 Carnegie Mellon University). Gaussian is a federally registered
 trademark of Gaussian, Inc.
  
 This software contains proprietary and confidential information,
 including trade secrets, belonging to Gaussian, Inc.
  
 This software is provided under written license and may be
 used, copied, transmitted, or stored only in accord with that
 written license.
  
 The following legend is applicable only to US Government
 contracts under FAR:
  
                    RESTRICTED RIGHTS LEGEND
  
 Use, reproduction and disclosure by the US Government is
 subject to restrictions as set forth in subparagraphs (a)
 and (c) of the Commercial Computer Software - Restricted
 Rights clause in FAR 52.227-19.
  
 Gaussian, Inc.
 340 Quinnipiac St., Bldg. 40, Wallingford CT 06492
  
  
 ---------------------------------------------------------------
 Warning -- This program may not be used in any manner that
 competes with the business of Gaussian, Inc. or will provide
 assistance to any competitor of Gaussian, Inc.  The licensee
 of this program is prohibited from giving any competitor of
 Gaussian, Inc. access to this program.  By using this program,
 the user acknowledges that Gaussian, Inc. is engaged in the
 business of creating and licensing software in the field of
 computational chemistry and represents and warrants to the
 licensee that it is not a competitor of Gaussian, Inc. and that
 it will not use this program in any manner prohibited above.
 ---------------------------------------------------------------
  

 Cite this work as:
 Gaussian 16, Revision C.01,
 M. J. Frisch, G. W. Trucks, H. B. Schlegel, G. E. Scuseria, 
 M. A. Robb, J. R. Cheeseman, G. Scalmani, V. Barone, 
 G. A. Petersson, H. Nakatsuji, X. Li, M. Caricato, A. V. Marenich, 
 J. Bloino, B. G. Janesko, R. Gomperts, B. Mennucci, H. P. Hratchian, 
 J. V. Ortiz, A. F. Izmaylov, J. L. Sonnenberg, D. Williams-Young, 
 F. Ding, F. Lipparini, F. Egidi, J. Goings, B. Peng, A. Petrone, 
 T. Henderson, D. Ranasinghe, V. G. Zakrzewski, J. Gao, N. Rega, 
 G. Zheng, W. Liang, M. Hada, M. Ehara, K. Toyota, R. Fukuda, 
 J. Hasegawa, M. Ishida, T. Nakajima, Y. Honda, O. Kitao, H. Nakai, 
 T. Vreven, K. Throssell, J. A. Montgomery, Jr., J. E. Peralta, 
 F. Ogliaro, M. J. Bearpark, J. J. Heyd, E. N. Brothers, K. N. Kudin, 
 V. N. Staroverov, T. A. Keith, R. Kobayashi, J. Normand, 
 K. Raghavachari, A. P. Rendell, J. C. Burant, S. S. Iyengar, 
 J. Tomasi, M. Cossi, J. M. Millam, M. Klene, C. Adamo, R. Cammi, 
 J. W. Ochterski, R. L. Martin, K. Morokuma, O. Farkas, 
 J. B. Foresman, and D. J. Fox, Gaussian, Inc., Wallingford CT, 2019.
 
 ******************************************
 Gaussian 16:  ES64L-G16RevC.01  3-Jul-2019
                31-May-2024 
 ******************************************
 %mem=16000MB
 %nprocshared=4
 Will use up to    4 processors via shared memory.
 ----------------------------------------------------------------------
 # PBE1PBE Def2SVP EmpiricalDispersion=GD3BJ Opt=(loose, maxcycles=10) 
 NoSymm scrf=(smd,solvent=Water)
 ----------------------------------------------------------------------
 1/6=10,7=-1,18=20,19=15,26=3,38=1/1,3;
 2/9=110,12=2,15=1,17=6,18=5,40=1/2;
 3/5=43,7=101,11=2,25=1,30=1,70=32201,71=1,72=1,74=-13,124=41/1,2,3;
 4//1;
 5/5=2,38=5,53=1/2;
 6/7=2,8=2,9=2,10=2,28=1/1;
 7/30=1/1,2,3,16;
 1/6=10,7=-1,18=20,19=15,26=3/3(2);
 2/9=110,15=1/2;
 99//99;
 2/9=110,15=1/2;
 3/5=43,7=101,11=2,25=1,30=1,70=32205,71=1,72=1,74=-13,124=41/1,2,3;
 4/5=5,16=3,69=1/1;
 5/5=2,38=5,53=1/2;
 7/30=1/1,2,3,16;
 1/6=10,7=-1,18=20,19=15,26=3/3(-5);
 2/9=110,15=1/2;
 6/7=2,8=2,9=2,10=2,19=2,28=1/1;
 99/9=1/99;
 ---------------------
 p0_CFH3_conf0_opt_g16
 ---------------------
 Symbolic Z-matrix:
 Charge =  0 Multiplicity = 1
 C                    -0.07771   0.00727  -0.00422 
 F                     1.29095  -0.11904   0.07053 
 H                    -0.29386   0.91915  -0.55886 
 H                    -0.46085  -0.87088  -0.5219 
 H                    -0.45862   0.06361   1.01444 
 

 GradGradGradGradGradGradGradGradGradGradGradGradGradGradGradGradGradGrad
 Berny optimization.
 Initialization pass.
                           ----------------------------
                           !    Initial Parameters    !
                           ! (Angstroms and Degrees)  !
 --------------------------                            --------------------------
 ! Name  Definition              Value          Derivative Info.                !
 --------------------------------------------------------------------------------
 ! R1    R(1,2)                  1.3765         estimate D2E/DX2                !
 ! R2    R(1,3)                  1.089          estimate D2E/DX2                !
 ! R3    R(1,4)                  1.089          estimate D2E/DX2                !
 ! R4    R(1,5)                  1.089          estimate D2E/DX2                !
 ! A1    A(2,1,3)              107.5689         estimate D2E/DX2                !
 ! A2    A(2,1,4)              107.5564         estimate D2E/DX2                !
 ! A3    A(2,1,5)              107.5615         estimate D2E/DX2                !
 ! A4    A(3,1,4)              111.3022         estimate D2E/DX2                !
 ! A5    A(3,1,5)              111.3259         estimate D2E/DX2                !
 ! A6    A(4,1,5)              111.3044         estimate D2E/DX2                !
 ! D1    D(2,1,4,3)           -117.5927         estimate D2E/DX2                !
 ! D2    D(2,1,5,3)            117.6091         estimate D2E/DX2                !
 ! D3    D(2,1,5,4)           -117.5819         estimate D2E/DX2                !
 ! D4    D(3,1,5,4)            124.8091         estimate D2E/DX2                !
 --------------------------------------------------------------------------------
 Trust Radius=3.00D-01 FncErr=1.00D-07 GrdErr=1.00D-06 EigMax=2.50D+02 EigMin=1.00D-04
 Number of steps in this run=     10 maximum allowed number of steps=    100.
 GradGradGradGradGradGradGradGradGradGradGradGradGradGradGradGradGradGrad

                          Input orientation:                          
 ---------------------------------------------------------------------
 Center     Atomic      Atomic             Coordinates (Angstroms)
 Number     Number       Type             X           Y           Z
 ---------------------------------------------------------------------
      1          6           0       -0.077714    0.007266   -0.004219
      2          9           0        1.290950   -0.119039    0.070533
      3          1           0       -0.293865    0.919145   -0.558857
      4          1           0       -0.460852   -0.870877   -0.521898
      5          1           0       -0.458619    0.063606    1.014441
 ---------------------------------------------------------------------
                    Distance matrix (angstroms):
                    1          2          3          4          5
     1  C    0.000000
     2  F    1.376511   0.000000
     3  H    1.088976   1.996396   0.000000
     4  H    1.089000   1.996258   1.798175   0.000000
     5  H    1.089005   1.996325   1.798432   1.798221   0.000000
 Symmetry turned off by external request.
 Stoichiometry    CH3F
 Framework group  C1[X(CH3F)]
 Deg. of freedom     9
 Full point group                 C1      NOp   1
 Rotational constants (GHZ):         155.0669789          26.1176764          26.1169010
 Standard basis: def2SVP (5D, 7F)
    43 basis functions,    71 primitive gaussians,    45 cartesian basis functions
     9 alpha electrons        9 beta electrons
       nuclear repulsion energy        37.5460497926 Hartrees.
 NAtoms=    5 NActive=    5 NUniq=    5 SFac= 1.00D+00 NAtFMM=   60 NAOKFM=F Big=F
 Integral buffers will be    131072 words long.
 Raffenetti 2 integral format.
 Two-electron integral symmetry is turned off.
 Nuclear repulsion after empirical dispersion term =       37.5450323009 Hartrees.
 ------------------------------------------------------------------------------
 Polarizable Continuum Model (PCM)
 =================================
 Model                : PCM.
 Atomic radii         : SMD-Coulomb.
 Polarization charges : Total charges.
 Charge compensation  : None.
 Solution method      : On-the-fly selection.
 Cavity type          : VdW (van der Waals Surface) (Alpha=1.000).
 Cavity algorithm     : GePol (No added spheres)
                        Default sphere list used, NSphG=    5.
                        Lebedev-Laikov grids with approx.  5.0 points / Ang**2.
                        Smoothing algorithm: York/Karplus (Gamma=1.0000).
                        Polarization charges: spherical gaussians, with
                                              point-specific exponents (IZeta= 3).
                        Self-potential: point-specific (ISelfS= 7).
                        Self-field    : sphere-specific E.n sum rule (ISelfD= 2).
 1st derivatives      : Analytical E(r).r(x)/FMM algorithm (CHGder, D1EAlg=3).
                        Cavity 1st derivative terms included.
 Solvent              : Water, Eps=  78.355300 Eps(inf)=   1.777849
 ------------------------------------------------------------------------------
 Spheres list:
 ISph  on   Nord     Re0    Alpha      Xe            Ye            Ze
    1   C      1    1.8500  1.000     -0.077714      0.007266     -0.004219
    2   F      2    1.7300  1.000      1.290950     -0.119039      0.070533
    3   H      3    1.2000  1.000     -0.293865      0.919145     -0.558857
    4   H      4    1.2000  1.000     -0.460852     -0.870877     -0.521898
    5   H      5    1.2000  1.000     -0.458619      0.063606      1.014441
 ------------------------------------------------------------------------------
 ------------------------------------------------------------------------------
 Atomic radii for non-electrostatic terms: SMD-CDS.
 ------------------------------------------------------------------------------
 Nuclear repulsion after PCM non-electrostatic terms =       37.5500045565 Hartrees.
 One-electron integrals computed using PRISM.
   1 Symmetry operations used in ECPInt.
 ECPInt:  NShTT=     231 NPrTT=     815 LenC2=     232 LenP2D=     768.
 LDataN:  DoStor=T MaxTD1= 4 Len=   56
 NBasis=    43 RedAO= T EigKep=  1.42D-02  NBF=    43
 NBsUse=    43 1.00D-06 EigRej= -1.00D+00 NBFU=    43
 ExpMin= 1.22D-01 ExpMax= 2.89D+03 ExpMxC= 4.35D+02 IAcc=3 IRadAn=         5 AccDes= 0.00D+00
 Harris functional with IExCor= 1009 and IRadAn=       5 diagonalized for initial guess.
 HarFok:  IExCor= 1009 AccDes= 0.00D+00 IRadAn=         5 IDoV= 1 UseB2=F ITyADJ=14
 ICtDFT=  3500011 ScaDFX=  1.000000  1.000000  1.000000  1.000000
 FoFCou: FMM=F IPFlag=           0 FMFlag=      100000 FMFlg1=           0
         NFxFlg=           0 DoJE=T BraDBF=F KetDBF=T FulRan=T
         wScrn=  0.000000 ICntrl=       500 IOpCl=  0 I1Cent=   200000004 NGrid=           0
         NMat0=    1 NMatS0=      1 NMatT0=    0 NMatD0=    1 NMtDS0=    0 NMtDT0=    0
 Symmetry not used in FoFCou.
 Keep R1 ints in memory in canonical form, NReq=3922538.
 Requested convergence on RMS density matrix=1.00D-08 within 128 cycles.
 Requested convergence on MAX density matrix=1.00D-06.
 Requested convergence on             energy=1.00D-06.
 No special actions if energy rises.
 Inv3:  Mode=1 IEnd=      623808.
 Iteration    1 A*A^-1 deviation from unit magnitude is 3.11D-15 for    445.
 Iteration    1 A*A^-1 deviation from orthogonality  is 1.82D-15 for    453      5.
 Iteration    1 A^-1*A deviation from unit magnitude is 3.11D-15 for    445.
 Iteration    1 A^-1*A deviation from orthogonality  is 8.14D-16 for    403    182.
 Error on total polarization charges =  0.01421
 SCF Done:  E(RPBE1PBE) =  -139.482877013     A.U. after    9 cycles
            NFock=  9  Conv=0.13D-08     -V/T= 2.0064
 SMD-CDS (non-electrostatic) energy       (kcal/mol) =       3.12
 (included in total energy above)

 **********************************************************************

            Population analysis using the SCF Density.

 **********************************************************************

 Alpha  occ. eigenvalues --  -24.74000 -10.28494  -1.19197  -0.69689  -0.48986
 Alpha  occ. eigenvalues --   -0.48692  -0.48690  -0.34403  -0.34400
 Alpha virt. eigenvalues --    0.10041   0.14402   0.16125   0.16126   0.47409
 Alpha virt. eigenvalues --    0.47419   0.50139   0.66811   0.67796   0.68102
 Alpha virt. eigenvalues --    0.68104   1.08205   1.08209   1.17864   1.39658
 Alpha virt. eigenvalues --    1.39662   1.52659   1.73553   1.73560   1.76831
 Alpha virt. eigenvalues --    1.85204   1.93697   1.93707   2.16378   2.37249
 Alpha virt. eigenvalues --    2.37264   2.74077   2.87318   2.87334   3.13467
 Alpha virt. eigenvalues --    3.13469   3.38211   3.38216   3.79109
          Condensed to atoms (all electrons):
               1          2          3          4          5
     1  C    4.359231   0.262980   0.404429   0.404436   0.404449
     2  F    0.262980   9.154245  -0.027108  -0.027120  -0.027113
     3  H    0.404429  -0.027108   0.624128  -0.029304  -0.029297
     4  H    0.404436  -0.027120  -0.029304   0.624180  -0.029299
     5  H    0.404449  -0.027113  -0.029297  -0.029299   0.624110
 Mulliken charges:
               1
     1  C    0.164475
     2  F   -0.335884
     3  H    0.057152
     4  H    0.057107
     5  H    0.057150
 Sum of Mulliken charges =  -0.00000
 Mulliken charges with hydrogens summed into heavy atoms:
               1
     1  C    0.335884
     2  F   -0.335884
 Electronic spatial extent (au):  <R**2>=             95.4501
 Charge=             -0.0000 electrons
 Dipole moment (field-independent basis, Debye):
    X=             -2.1078    Y=              0.1945    Z=             -0.1151  Tot=              2.1199
 Quadrupole moment (field-independent basis, Debye-Ang):
   XX=            -14.4480   YY=            -11.4946   ZZ=            -11.4775
   XY=              0.2747   XZ=             -0.1627   YZ=              0.0145
 Traceless Quadrupole moment (field-independent basis, Debye-Ang):
   XX=             -1.9747   YY=              0.9788   ZZ=              0.9959
   XY=              0.2747   XZ=             -0.1627   YZ=              0.0145
 Octapole moment (field-independent basis, Debye-Ang**2):
  XXX=            -18.2460  YYY=              1.4042  ZZZ=             -0.2509  XYY=             -5.2339
  XXY=              0.7213  XXZ=             -0.4281  XZZ=             -5.2785  YZZ=              0.5241
  YYZ=             -0.8927  XYZ=             -0.0451
 Hexadecapole moment (field-independent basis, Debye-Ang**3):
 XXXX=            -63.0561 YYYY=            -16.1379 ZZZZ=            -15.9562 XXXY=              2.2973
 XXXZ=             -1.3607 YYYX=              2.0876 YYYZ=              0.0207 ZZZX=             -1.5539
 ZZZY=              0.1396 XXYY=            -12.7966 XXZZ=            -12.6763 YYZZ=             -5.2942
 XXYZ=              0.1152 YYXZ=             -0.0777 ZZXY=              0.6654
 N-N= 3.755000455655D+01 E-N=-4.054018555536D+02  KE= 1.385901560654D+02
   1 Symmetry operations used in ECPInt.
 ECPInt:  NShTT=     231 NPrTT=     815 LenC2=     232 LenP2D=     768.
 LDataN:  DoStor=T MaxTD1= 5 Len=  102
 D1PCM: PCM CHGder 1st derivatives, ID1Alg=3 FixD1E=F DoIter=F DoCFld=F I1PDM=0.
 Calling FoFJK, ICntrl=      2127 FMM=F ISym2X=0 I1Cent= 0 IOpClX= 0 NMat=1 NMatS=1 NMatT=0.
 -------------------------------------------------------------------
 Center     Atomic                   Forces (Hartrees/Bohr)
 Number     Number              X              Y              Z
 -------------------------------------------------------------------
      1        6           0.014878267   -0.001448933    0.000821142
      2        9           0.008008328   -0.000717977    0.000435268
      3        1          -0.006999439    0.005785276   -0.003479523
      4        1          -0.007958318   -0.004494988   -0.003275173
      5        1          -0.007928837    0.000876622    0.005498286
 -------------------------------------------------------------------
 Cartesian Forces:  Max     0.014878267 RMS     0.006173470

 GradGradGradGradGradGradGradGradGradGradGradGradGradGradGradGradGradGrad
 Berny optimization.
 FormGI is forming the generalized inverse of G from B-inverse, IUseBI=4.
 Internal  Forces:  Max     0.008052194 RMS     0.004870564
 Search for a local minimum.
 Step number   1 out of a maximum of   10
 All quantities printed in internal units (Hartrees-Bohrs-Radians)
 Mixed Optimization -- RFO/linear search
 Second derivative matrix not updated -- first step.
 The second derivative matrix:
                          R1        R2        R3        R4        A1
           R1           0.49746
           R2           0.00000   0.34931
           R3           0.00000   0.00000   0.34928
           R4           0.00000   0.00000   0.00000   0.34928
           A1           0.00000   0.00000   0.00000   0.00000   0.16000
           A2           0.00000   0.00000   0.00000   0.00000   0.00000
           A3           0.00000   0.00000   0.00000   0.00000   0.00000
           A4           0.00000   0.00000   0.00000   0.00000   0.00000
           A5           0.00000   0.00000   0.00000   0.00000   0.00000
           A6           0.00000   0.00000   0.00000   0.00000   0.00000
           D1           0.00000   0.00000   0.00000   0.00000   0.00000
           D2           0.00000   0.00000   0.00000   0.00000   0.00000
           D3           0.00000   0.00000   0.00000   0.00000   0.00000
           D4           0.00000   0.00000   0.00000   0.00000   0.00000
                          A2        A3        A4        A5        A6
           A2           0.16000
           A3           0.00000   0.16000
           A4           0.00000   0.00000   0.16000
           A5           0.00000   0.00000   0.00000   0.16000
           A6           0.00000   0.00000   0.00000   0.00000   0.16000
           D1           0.00000   0.00000   0.00000   0.00000   0.00000
           D2           0.00000   0.00000   0.00000   0.00000   0.00000
           D3           0.00000   0.00000   0.00000   0.00000   0.00000
           D4           0.00000   0.00000   0.00000   0.00000   0.00000
                          D1        D2        D3        D4
           D1           0.00248
           D2           0.00000   0.00248
           D3           0.00000   0.00000   0.00248
           D4           0.00000   0.00000   0.00000   0.00248
 ITU=  0
     Eigenvalues ---    0.04842   0.05631   0.09014   0.16000   0.16000
     Eigenvalues ---    0.34928   0.34928   0.34931   0.49746
 RFO step:  Lambda=-1.89345547D-03 EMin= 4.84187622D-02
 Linear search not attempted -- first point.
 Iteration  1 RMS(Cart)=  0.02509975 RMS(Int)=  0.00155565
 Iteration  2 RMS(Cart)=  0.00093573 RMS(Int)=  0.00104488
 Iteration  3 RMS(Cart)=  0.00000127 RMS(Int)=  0.00104488
 Iteration  4 RMS(Cart)=  0.00000000 RMS(Int)=  0.00104488
 Variable       Old X    -DE/DX   Delta X   Delta X   Delta X     New X
                                 (Linear)    (Quad)   (Total)
    R1        2.60123   0.00805   0.00000   0.01613   0.01613   2.61735
    R2        2.05787   0.00801   0.00000   0.02280   0.02280   2.08066
    R3        2.05791   0.00798   0.00000   0.02273   0.02273   2.08064
    R4        2.05792   0.00796   0.00000   0.02267   0.02267   2.08059
    A1        1.87743   0.00116   0.00000   0.03488   0.03561   1.91304
    A2        1.87721   0.00186   0.00000   0.03591   0.03640   1.91361
    A3        1.87730   0.00367   0.00000   0.03647   0.03637   1.91367
    A4        1.94259  -0.00026   0.00000  -0.03206  -0.03450   1.90809
    A5        1.94300  -0.00281   0.00000  -0.03382  -0.03537   1.90764
    A6        1.94263  -0.00312   0.00000  -0.03348  -0.03491   1.90772
    D1       -2.05238  -0.00239   0.00000  -0.04600  -0.04523  -2.09761
    D2        2.05267   0.00205   0.00000   0.04537   0.04470   2.09736
    D3       -2.05219  -0.00272   0.00000  -0.04679  -0.04593  -2.09812
    D4        2.17833  -0.00477   0.00000  -0.09217  -0.09063   2.08770
         Item               Value     Threshold  Converged?
 Maximum Force            0.008052     0.002500     NO 
 RMS     Force            0.004871     0.001667     NO 
 Maximum Displacement     0.059468     0.010000     NO 
 RMS     Displacement     0.025432     0.006667     NO 
 Predicted change in Energy=-9.321205D-04
 GradGradGradGradGradGradGradGradGradGradGradGradGradGradGradGradGradGrad

                          Input orientation:                          
 ---------------------------------------------------------------------
 Center     Atomic      Atomic             Coordinates (Angstroms)
 Number     Number       Type             X           Y           Z
 ---------------------------------------------------------------------
      1          6           0       -0.054771    0.004971   -0.002986
      2          9           0        1.322419   -0.121739    0.072102
      3          1           0       -0.311896    0.919864   -0.558994
      4          1           0       -0.479022   -0.868330   -0.522235
      5          1           0       -0.476830    0.065333    1.012113
 ---------------------------------------------------------------------
                    Distance matrix (angstroms):
                    1          2          3          4          5
     1  C    0.000000
     2  F    1.385044   0.000000
     3  H    1.101040   2.038187   0.000000
     4  H    1.101027   2.038584   1.796363   0.000000
     5  H    1.101002   2.038606   1.796052   1.796094   0.000000
 Symmetry turned off by external request.
 Stoichiometry    CH3F
 Framework group  C1[X(CH3F)]
 Deg. of freedom     9
 Full point group                 C1      NOp   1
 Rotational constants (GHZ):         155.4308677          25.4905089          25.4896037
 Standard basis: def2SVP (5D, 7F)
    43 basis functions,    71 primitive gaussians,    45 cartesian basis functions
     9 alpha electrons        9 beta electrons
       nuclear repulsion energy        37.1756975025 Hartrees.
 NAtoms=    5 NActive=    5 NUniq=    5 SFac= 1.00D+00 NAtFMM=   60 NAOKFM=F Big=F
 Integral buffers will be    131072 words long.
 Raffenetti 2 integral format.
 Two-electron integral symmetry is turned off.
 Nuclear repulsion after empirical dispersion term =       37.1746808092 Hartrees.
 ------------------------------------------------------------------------------
 Polarizable Continuum Model (PCM)
 =================================
 Model                : PCM.
 Atomic radii         : SMD-Coulomb.
 Polarization charges : Total charges.
 Charge compensation  : None.
 Solution method      : On-the-fly selection.
 Cavity type          : VdW (van der Waals Surface) (Alpha=1.000).
 Cavity algorithm     : GePol (No added spheres)
                        Default sphere list used, NSphG=    5.
                        Lebedev-Laikov grids with approx.  5.0 points / Ang**2.
                        Smoothing algorithm: York/Karplus (Gamma=1.0000).
                        Polarization charges: spherical gaussians, with
                                              point-specific exponents (IZeta= 3).
                        Self-potential: point-specific (ISelfS= 7).
                        Self-field    : sphere-specific E.n sum rule (ISelfD= 2).
 1st derivatives      : Analytical E(r).r(x)/FMM algorithm (CHGder, D1EAlg=3).
                        Cavity 1st derivative terms included.
 Solvent              : Water, Eps=  78.355300 Eps(inf)=   1.777849
 ------------------------------------------------------------------------------
 Spheres list:
 ISph  on   Nord     Re0    Alpha      Xe            Ye            Ze
    1   C      1    1.8500  1.000     -0.054771      0.004971     -0.002986
    2   F      2    1.7300  1.000      1.322419     -0.121739      0.072102
    3   H      3    1.2000  1.000     -0.311896      0.919864     -0.558994
    4   H      4    1.2000  1.000     -0.479022     -0.868330     -0.522235
    5   H      5    1.2000  1.000     -0.476830      0.065333      1.012113
 ------------------------------------------------------------------------------
 ------------------------------------------------------------------------------
 Atomic radii for non-electrostatic terms: SMD-CDS.
 ------------------------------------------------------------------------------
 Nuclear repulsion after PCM non-electrostatic terms =       37.1796325253 Hartrees.
 One-electron integrals computed using PRISM.
   1 Symmetry operations used in ECPInt.
 ECPInt:  NShTT=     231 NPrTT=     815 LenC2=     232 LenP2D=     765.
 LDataN:  DoStor=T MaxTD1= 4 Len=   56
 NBasis=    43 RedAO= T EigKep=  1.49D-02  NBF=    43
 NBsUse=    43 1.00D-06 EigRej= -1.00D+00 NBFU=    43
 Initial guess from the checkpoint file:  "/home/thijs/scratch/Gau-2619656.chk"
 B after Tr=     0.038455   -0.003626    0.002038
         Rot=    1.000000    0.000001   -0.000035   -0.000074 Ang=   0.01 deg.
 ExpMin= 1.22D-01 ExpMax= 2.89D+03 ExpMxC= 4.35D+02 IAcc=3 IRadAn=         5 AccDes= 0.00D+00
 Harris functional with IExCor= 1009 and IRadAn=       5 diagonalized for initial guess.
 HarFok:  IExCor= 1009 AccDes= 0.00D+00 IRadAn=         5 IDoV= 1 UseB2=F ITyADJ=14
 ICtDFT=  3500011 ScaDFX=  1.000000  1.000000  1.000000  1.000000
 FoFCou: FMM=F IPFlag=           0 FMFlag=      100000 FMFlg1=           0
         NFxFlg=           0 DoJE=T BraDBF=F KetDBF=T FulRan=T
         wScrn=  0.000000 ICntrl=       500 IOpCl=  0 I1Cent=   200000004 NGrid=           0
         NMat0=    1 NMatS0=      1 NMatT0=    0 NMatD0=    1 NMtDS0=    0 NMtDT0=    0
 Symmetry not used in FoFCou.
 Keep R1 ints in memory in canonical form, NReq=3922538.
 Requested convergence on RMS density matrix=1.00D-08 within 128 cycles.
 Requested convergence on MAX density matrix=1.00D-06.
 Requested convergence on             energy=1.00D-06.
 No special actions if energy rises.
 Inv3:  Mode=1 IEnd=      618348.
 Iteration    1 A*A^-1 deviation from unit magnitude is 2.89D-15 for    442.
 Iteration    1 A*A^-1 deviation from orthogonality  is 1.45D-15 for    451      5.
 Iteration    1 A^-1*A deviation from unit magnitude is 2.66D-15 for    442.
 Iteration    1 A^-1*A deviation from orthogonality  is 1.37D-14 for    350    339.
 Error on total polarization charges =  0.01466
 SCF Done:  E(RPBE1PBE) =  -139.483717640     A.U. after    8 cycles
            NFock=  8  Conv=0.19D-08     -V/T= 2.0070
 SMD-CDS (non-electrostatic) energy       (kcal/mol) =       3.11
 (included in total energy above)
   1 Symmetry operations used in ECPInt.
 ECPInt:  NShTT=     231 NPrTT=     815 LenC2=     232 LenP2D=     765.
 LDataN:  DoStor=T MaxTD1= 5 Len=  102
 D1PCM: PCM CHGder 1st derivatives, ID1Alg=3 FixD1E=F DoIter=F DoCFld=F I1PDM=0.
 Calling FoFJK, ICntrl=      2127 FMM=F ISym2X=0 I1Cent= 0 IOpClX= 0 NMat=1 NMatS=1 NMatT=0.
 -------------------------------------------------------------------
 Center     Atomic                   Forces (Hartrees/Bohr)
 Number     Number              X              Y              Z
 -------------------------------------------------------------------
      1        6           0.004311966   -0.000348802    0.000203890
      2        9          -0.005775908    0.000495713   -0.000290827
      3        1           0.000468019    0.000089081   -0.000079647
      4        1           0.000488016   -0.000189625   -0.000065219
      5        1           0.000507908   -0.000046368    0.000231803
 -------------------------------------------------------------------
 Cartesian Forces:  Max     0.005775908 RMS     0.001884556

 GradGradGradGradGradGradGradGradGradGradGradGradGradGradGradGradGradGrad
 Berny optimization.
 Using GEDIIS/GDIIS optimizer.
 FormGI is forming the generalized inverse of G from B-inverse, IUseBI=4.
 Internal  Forces:  Max     0.005804274 RMS     0.001569338
 Search for a local minimum.
 Step number   2 out of a maximum of   10
 All quantities printed in internal units (Hartrees-Bohrs-Radians)
 Mixed Optimization -- RFO/linear search
 Update second derivatives using D2CorX and points    1    2
 DE= -8.41D-04 DEPred=-9.32D-04 R= 9.02D-01
 TightC=F SS=  1.41D+00  RLast= 1.54D-01 DXNew= 5.0454D-01 4.6235D-01
 Trust test= 9.02D-01 RLast= 1.54D-01 DXMaxT set to 4.62D-01
 The second derivative matrix:
                          R1        R2        R3        R4        A1
           R1           0.55518
           R2           0.01940   0.34669
           R3           0.01942  -0.00257   0.34677
           R4           0.01922  -0.00265  -0.00260   0.34660
           A1          -0.01558  -0.01889  -0.01883  -0.01879   0.14383
           A2          -0.01082  -0.01636  -0.01630  -0.01628  -0.01607
           A3           0.00257  -0.00862  -0.00857  -0.00860  -0.01485
           A4           0.02121   0.02183   0.02176   0.02171   0.01622
           A5           0.00306   0.01159   0.01154   0.01154   0.01494
           A6           0.00038   0.00991   0.00986   0.00988   0.01451
           D1          -0.01666  -0.00942  -0.00941  -0.00936  -0.00121
           D2           0.01416   0.00799   0.00797   0.00793   0.00099
           D3          -0.01921  -0.01089  -0.01088  -0.01082  -0.00144
           D4          -0.03337  -0.01888  -0.01885  -0.01875  -0.00243
                          A2        A3        A4        A5        A6
           A2           0.14432
           A3          -0.01368   0.15028
           A4           0.01648   0.01619   0.14416
           A5           0.01412   0.01109  -0.01586   0.14796
           A6           0.01355   0.01017  -0.01560  -0.01129   0.14952
           D1          -0.00220  -0.00471   0.00003   0.00353   0.00399
           D2           0.00183   0.00398   0.00002  -0.00297  -0.00336
           D3          -0.00257  -0.00546   0.00008   0.00411   0.00463
           D4          -0.00440  -0.00943   0.00006   0.00708   0.00799
                          D1        D2        D3        D4
           D1           0.00569
           D2          -0.00274   0.00482
           D3           0.00369  -0.00315   0.00672
           D4           0.00643  -0.00549   0.00739   0.01536
 ITU=  1  0
 Use linear search instead of GDIIS.
     Eigenvalues ---    0.05043   0.05681   0.08607   0.15919   0.16000
     Eigenvalues ---    0.33654   0.34928   0.34930   0.56150
 RFO step:  Lambda=-4.48996803D-05 EMin= 5.04328359D-02
 Quartic linear search produced a step of -0.10071.
 Iteration  1 RMS(Cart)=  0.00352731 RMS(Int)=  0.00010092
 Iteration  2 RMS(Cart)=  0.00000326 RMS(Int)=  0.00010086
 Iteration  3 RMS(Cart)=  0.00000000 RMS(Int)=  0.00010086
 Variable       Old X    -DE/DX   Delta X   Delta X   Delta X     New X
                                 (Linear)    (Quad)   (Total)
    R1        2.61735  -0.00580  -0.00162  -0.00846  -0.01008   2.60727
    R2        2.08066   0.00001  -0.00230   0.00288   0.00059   2.08125
    R3        2.08064  -0.00001  -0.00229   0.00284   0.00056   2.08120
    R4        2.08059   0.00002  -0.00228   0.00290   0.00061   2.08120
    A1        1.91304  -0.00009  -0.00359   0.00171  -0.00195   1.91109
    A2        1.91361  -0.00020  -0.00367   0.00119  -0.00253   1.91109
    A3        1.91367  -0.00041  -0.00366   0.00101  -0.00264   1.91103
    A4        1.90809   0.00002   0.00347  -0.00156   0.00215   1.91024
    A5        1.90764   0.00032   0.00356  -0.00118   0.00253   1.91016
    A6        1.90772   0.00036   0.00352  -0.00119   0.00247   1.91019
    D1       -2.09761   0.00021   0.00455  -0.00186   0.00261  -2.09499
    D2        2.09736  -0.00017  -0.00450   0.00199  -0.00245   2.09491
    D3       -2.09812   0.00027   0.00463  -0.00134   0.00320  -2.09492
    D4        2.08770   0.00044   0.00913  -0.00333   0.00565   2.09335
         Item               Value     Threshold  Converged?
 Maximum Force            0.005804     0.002500     NO 
 RMS     Force            0.001569     0.001667     YES
 Maximum Displacement     0.010722     0.010000     NO 
 RMS     Displacement     0.003528     0.006667     YES
 Predicted change in Energy=-3.322899D-05
 GradGradGradGradGradGradGradGradGradGradGradGradGradGradGradGradGradGrad

                          Input orientation:                          
 ---------------------------------------------------------------------
 Center     Atomic      Atomic             Coordinates (Angstroms)
 Number     Number       Type             X           Y           Z
 ---------------------------------------------------------------------
      1          6           0       -0.055107    0.005091   -0.003026
      2          9           0        1.316745   -0.121376    0.071939
      3          1           0       -0.309989    0.920641   -0.559601
      4          1           0       -0.477010   -0.869428   -0.522759
      5          1           0       -0.474740    0.065173    1.013447
 ---------------------------------------------------------------------
                    Distance matrix (angstroms):
                    1          2          3          4          5
     1  C    0.000000
     2  F    1.379708   0.000000
     3  H    1.101350   2.032463   0.000000
     4  H    1.101321   2.032438   1.798222   0.000000
     5  H    1.101326   2.032402   1.798180   1.798170   0.000000
 Symmetry turned off by external request.
 Stoichiometry    CH3F
 Framework group  C1[X(CH3F)]
 Deg. of freedom     9
 Full point group                 C1      NOp   1
 Rotational constants (GHZ):         155.0817580          25.6747311          25.6745802
 Standard basis: def2SVP (5D, 7F)
    43 basis functions,    71 primitive gaussians,    45 cartesian basis functions
     9 alpha electrons        9 beta electrons
       nuclear repulsion energy        37.2728434593 Hartrees.
 NAtoms=    5 NActive=    5 NUniq=    5 SFac= 1.00D+00 NAtFMM=   60 NAOKFM=F Big=F
 Integral buffers will be    131072 words long.
 Raffenetti 2 integral format.
 Two-electron integral symmetry is turned off.
 Nuclear repulsion after empirical dispersion term =       37.2718266315 Hartrees.
 ------------------------------------------------------------------------------
 Polarizable Continuum Model (PCM)
 =================================
 Model                : PCM.
 Atomic radii         : SMD-Coulomb.
 Polarization charges : Total charges.
 Charge compensation  : None.
 Solution method      : On-the-fly selection.
 Cavity type          : VdW (van der Waals Surface) (Alpha=1.000).
 Cavity algorithm     : GePol (No added spheres)
                        Default sphere list used, NSphG=    5.
                        Lebedev-Laikov grids with approx.  5.0 points / Ang**2.
                        Smoothing algorithm: York/Karplus (Gamma=1.0000).
                        Polarization charges: spherical gaussians, with
                                              point-specific exponents (IZeta= 3).
                        Self-potential: point-specific (ISelfS= 7).
                        Self-field    : sphere-specific E.n sum rule (ISelfD= 2).
 1st derivatives      : Analytical E(r).r(x)/FMM algorithm (CHGder, D1EAlg=3).
                        Cavity 1st derivative terms included.
 Solvent              : Water, Eps=  78.355300 Eps(inf)=   1.777849
 ------------------------------------------------------------------------------
 Spheres list:
 ISph  on   Nord     Re0    Alpha      Xe            Ye            Ze
    1   C      1    1.8500  1.000     -0.055107      0.005091     -0.003026
    2   F      2    1.7300  1.000      1.316745     -0.121376      0.071939
    3   H      3    1.2000  1.000     -0.309989      0.920641     -0.559601
    4   H      4    1.2000  1.000     -0.477010     -0.869428     -0.522759
    5   H      5    1.2000  1.000     -0.474740      0.065173      1.013447
 ------------------------------------------------------------------------------
 ------------------------------------------------------------------------------
 Atomic radii for non-electrostatic terms: SMD-CDS.
 ------------------------------------------------------------------------------
 Nuclear repulsion after PCM non-electrostatic terms =       37.2767739905 Hartrees.
 One-electron integrals computed using PRISM.
   1 Symmetry operations used in ECPInt.
 ECPInt:  NShTT=     231 NPrTT=     815 LenC2=     232 LenP2D=     765.
 LDataN:  DoStor=T MaxTD1= 4 Len=   56
 NBasis=    43 RedAO= T EigKep=  1.48D-02  NBF=    43
 NBsUse=    43 1.00D-06 EigRej= -1.00D+00 NBFU=    43
 Initial guess from the checkpoint file:  "/home/thijs/scratch/Gau-2619656.chk"
 B after Tr=    -0.004927    0.000478   -0.000242
         Rot=    1.000000    0.000001    0.000039    0.000051 Ang=   0.01 deg.
 Keep R1 ints in memory in canonical form, NReq=3922538.
 Requested convergence on RMS density matrix=1.00D-08 within 128 cycles.
 Requested convergence on MAX density matrix=1.00D-06.
 Requested convergence on             energy=1.00D-06.
 No special actions if energy rises.
 Inv3:  Mode=1 IEnd=      618348.
 Iteration    1 A*A^-1 deviation from unit magnitude is 3.22D-15 for    110.
 Iteration    1 A*A^-1 deviation from orthogonality  is 2.88D-15 for    303    111.
 Iteration    1 A^-1*A deviation from unit magnitude is 2.89D-15 for    440.
 Iteration    1 A^-1*A deviation from orthogonality  is 2.40D-14 for    383    339.
 Error on total polarization charges =  0.01470
 SCF Done:  E(RPBE1PBE) =  -139.483758256     A.U. after    7 cycles
            NFock=  7  Conv=0.52D-08     -V/T= 2.0069
 SMD-CDS (non-electrostatic) energy       (kcal/mol) =       3.10
 (included in total energy above)
   1 Symmetry operations used in ECPInt.
 ECPInt:  NShTT=     231 NPrTT=     815 LenC2=     232 LenP2D=     765.
 LDataN:  DoStor=T MaxTD1= 5 Len=  102
 D1PCM: PCM CHGder 1st derivatives, ID1Alg=3 FixD1E=F DoIter=F DoCFld=F I1PDM=0.
 Calling FoFJK, ICntrl=      2127 FMM=F ISym2X=0 I1Cent= 0 IOpClX= 0 NMat=1 NMatS=1 NMatT=0.
 -------------------------------------------------------------------
 Center     Atomic                   Forces (Hartrees/Bohr)
 Number     Number              X              Y              Z
 -------------------------------------------------------------------
      1        6           0.001977111   -0.000186778    0.000112596
      2        9          -0.001670204    0.000157638   -0.000098340
      3        1          -0.000114713   -0.000109586    0.000065805
      4        1          -0.000101832    0.000130451    0.000062453
      5        1          -0.000090362    0.000008276   -0.000142513
 -------------------------------------------------------------------
 Cartesian Forces:  Max     0.001977111 RMS     0.000676755

 GradGradGradGradGradGradGradGradGradGradGradGradGradGradGradGradGradGrad
 Berny optimization.
 Using GEDIIS/GDIIS optimizer.
 FormGI is forming the generalized inverse of G from B-inverse, IUseBI=4.
 Internal  Forces:  Max     0.001680488 RMS     0.000455694
 Search for a local minimum.
 Step number   3 out of a maximum of   10
 All quantities printed in internal units (Hartrees-Bohrs-Radians)
 Mixed Optimization -- En-DIIS/RFO-DIIS
 Update second derivatives using D2CorX and points    1    2    3
 DE= -4.06D-05 DEPred=-3.32D-05 R= 1.22D+00
 TightC=F SS=  1.41D+00  RLast= 1.39D-02 DXNew= 7.7758D-01 4.1563D-02
 Trust test= 1.22D+00 RLast= 1.39D-02 DXMaxT set to 4.62D-01
 The second derivative matrix:
                          R1        R2        R3        R4        A1
           R1           0.37656
           R2           0.01447   0.34789
           R3           0.01470  -0.00143   0.34785
           R4           0.01442  -0.00142  -0.00143   0.34785
           A1          -0.00491  -0.01960  -0.01950  -0.01952   0.14392
           A2          -0.00375  -0.01729  -0.01718  -0.01723  -0.01567
           A3           0.01171  -0.01032  -0.01019  -0.01033  -0.01397
           A4           0.01265   0.02228   0.02219   0.02217   0.01623
           A5          -0.00513   0.01294   0.01282   0.01292   0.01428
           A6          -0.01004   0.01153   0.01140   0.01152   0.01374
           D1          -0.01638  -0.00876  -0.00878  -0.00869  -0.00171
           D2           0.01251   0.00754   0.00755   0.00748   0.00138
           D3          -0.02095  -0.00996  -0.00999  -0.00987  -0.00205
           D4          -0.03346  -0.01750  -0.01754  -0.01735  -0.00343
                          A2        A3        A4        A5        A6
           A2           0.14497
           A3          -0.01244   0.15259
           A4           0.01626   0.01566   0.14409
           A5           0.01316   0.00927  -0.01547   0.14940
           A6           0.01241   0.00800  -0.01515  -0.00958   0.15154
           D1          -0.00274  -0.00565   0.00037   0.00429   0.00490
           D2           0.00223   0.00463  -0.00026  -0.00351  -0.00401
           D3          -0.00330  -0.00676   0.00048   0.00515   0.00587
           D4          -0.00553  -0.01139   0.00074   0.00866   0.00988
                          D1        D2        D3        D4
           D1           0.00600
           D2          -0.00292   0.00492
           D3           0.00415  -0.00345   0.00740
           D4           0.00708  -0.00589   0.00837   0.01673
 ITU=  1  1  0
 Use linear search instead of GDIIS.
     Eigenvalues ---    0.05110   0.05941   0.08641   0.16000   0.16070
     Eigenvalues ---    0.33402   0.34928   0.34930   0.39370
 RFO step:  Lambda=-5.80309596D-06 EMin= 5.10951523D-02
 Quartic linear search produced a step of  0.27880.
 Iteration  1 RMS(Cart)=  0.00107568 RMS(Int)=  0.00000345
 Iteration  2 RMS(Cart)=  0.00000141 RMS(Int)=  0.00000309
 Iteration  3 RMS(Cart)=  0.00000000 RMS(Int)=  0.00000309
 Variable       Old X    -DE/DX   Delta X   Delta X   Delta X     New X
                                 (Linear)    (Quad)   (Total)
    R1        2.60727  -0.00168  -0.00281  -0.00222  -0.00503   2.60224
    R2        2.08125  -0.00010   0.00016  -0.00015   0.00001   2.08126
    R3        2.08120  -0.00009   0.00015  -0.00014   0.00002   2.08122
    R4        2.08120  -0.00010   0.00017  -0.00016   0.00001   2.08122
    A1        1.91109   0.00003  -0.00054   0.00201   0.00147   1.91256
    A2        1.91109   0.00005  -0.00070   0.00227   0.00157   1.91265
    A3        1.91103   0.00010  -0.00074   0.00227   0.00153   1.91256
    A4        1.91024  -0.00001   0.00060  -0.00213  -0.00154   1.90870
    A5        1.91016  -0.00008   0.00070  -0.00222  -0.00152   1.90864
    A6        1.91019  -0.00009   0.00069  -0.00220  -0.00151   1.90867
    D1       -2.09499  -0.00006   0.00073  -0.00254  -0.00181  -2.09681
    D2        2.09491   0.00005  -0.00068   0.00248   0.00180   2.09671
    D3       -2.09492  -0.00007   0.00089  -0.00282  -0.00193  -2.09685
    D4        2.09335  -0.00012   0.00157  -0.00531  -0.00373   2.08962
         Item               Value     Threshold  Converged?
 Maximum Force            0.001680     0.002500     YES
 RMS     Force            0.000456     0.001667     YES
 Maximum Displacement     0.002780     0.010000     YES
 RMS     Displacement     0.001076     0.006667     YES
 Predicted change in Energy=-4.898551D-06
 Optimization completed.
    -- Stationary point found.
                           ----------------------------
                           !   Optimized Parameters   !
                           ! (Angstroms and Degrees)  !
 --------------------------                            --------------------------
 ! Name  Definition              Value          Derivative Info.                !
 --------------------------------------------------------------------------------
 ! R1    R(1,2)                  1.3797         -DE/DX =   -0.0017              !
 ! R2    R(1,3)                  1.1014         -DE/DX =   -0.0001              !
 ! R3    R(1,4)                  1.1013         -DE/DX =   -0.0001              !
 ! R4    R(1,5)                  1.1013         -DE/DX =   -0.0001              !
 ! A1    A(2,1,3)              109.4975         -DE/DX =    0.0                 !
 ! A2    A(2,1,4)              109.4973         -DE/DX =    0.0001              !
 ! A3    A(2,1,5)              109.494          -DE/DX =    0.0001              !
 ! A4    A(3,1,4)              109.4485         -DE/DX =    0.0                 !
 ! A5    A(3,1,5)              109.4444         -DE/DX =   -0.0001              !
 ! A6    A(4,1,5)              109.4456         -DE/DX =   -0.0001              !
 ! D1    D(2,1,4,3)           -120.0342         -DE/DX =   -0.0001              !
 ! D2    D(2,1,5,3)            120.0297         -DE/DX =    0.0                 !
 ! D3    D(2,1,5,4)           -120.0302         -DE/DX =   -0.0001              !
 ! D4    D(3,1,5,4)            119.9401         -DE/DX =   -0.0001              !
 --------------------------------------------------------------------------------
 GradGradGradGradGradGradGradGradGradGradGradGradGradGradGradGradGradGrad

                          Input orientation:                          
 ---------------------------------------------------------------------
 Center     Atomic      Atomic             Coordinates (Angstroms)
 Number     Number       Type             X           Y           Z
 ---------------------------------------------------------------------
      1          6           0       -0.055107    0.005091   -0.003026
      2          9           0        1.316745   -0.121376    0.071939
      3          1           0       -0.309989    0.920641   -0.559601
      4          1           0       -0.477010   -0.869428   -0.522759
      5          1           0       -0.474740    0.065173    1.013447
 ---------------------------------------------------------------------
                    Distance matrix (angstroms):
                    1          2          3          4          5
     1  C    0.000000
     2  F    1.379708   0.000000
     3  H    1.101350   2.032463   0.000000
     4  H    1.101321   2.032438   1.798222   0.000000
     5  H    1.101326   2.032402   1.798180   1.798170   0.000000
 Symmetry turned off by external request.
 Stoichiometry    CH3F
 Framework group  C1[X(CH3F)]
 Deg. of freedom     9
 Full point group                 C1      NOp   1
 Rotational constants (GHZ):         155.0817580          25.6747311          25.6745802

 **********************************************************************

            Population analysis using the SCF Density.

 **********************************************************************

 Alpha  occ. eigenvalues --  -24.74458 -10.28939  -1.19356  -0.69576  -0.49446
 Alpha  occ. eigenvalues --   -0.48395  -0.48394  -0.34486  -0.34486
 Alpha virt. eigenvalues --    0.10013   0.13989   0.15931   0.15932   0.47281
 Alpha virt. eigenvalues --    0.47282   0.49617   0.66175   0.67377   0.67378
 Alpha virt. eigenvalues --    0.68640   1.08299   1.08299   1.17400   1.38691
 Alpha virt. eigenvalues --    1.38693   1.53032   1.73680   1.74009   1.74011
 Alpha virt. eigenvalues --    1.85236   1.90325   1.90327   2.19480   2.35436
 Alpha virt. eigenvalues --    2.35438   2.69344   2.85395   2.85399   3.13092
 Alpha virt. eigenvalues --    3.13093   3.37804   3.37805   3.77936
          Condensed to atoms (all electrons):
               1          2          3          4          5
     1  C    4.380684   0.266151   0.400810   0.400823   0.400820
     2  F    0.266151   9.140286  -0.025790  -0.025791  -0.025792
     3  H    0.400810  -0.025790   0.627336  -0.030910  -0.030913
     4  H    0.400823  -0.025791  -0.030910   0.627327  -0.030911
     5  H    0.400820  -0.025792  -0.030913  -0.030911   0.627372
 Mulliken charges:
               1
     1  C    0.150712
     2  F   -0.329064
     3  H    0.059467
     4  H    0.059462
     5  H    0.059424
 Sum of Mulliken charges =   0.00000
 Mulliken charges with hydrogens summed into heavy atoms:
               1
     1  C    0.329064
     2  F   -0.329064
 Electronic spatial extent (au):  <R**2>=             97.8459
 Charge=              0.0000 electrons
 Dipole moment (field-independent basis, Debye):
    X=             -2.1249    Y=              0.1959    Z=             -0.1161  Tot=              2.1371
 Quadrupole moment (field-independent basis, Debye-Ang):
   XX=            -14.4396   YY=            -11.5864   ZZ=            -11.5708
   XY=              0.2653   XZ=             -0.1571   YZ=              0.0144
 Traceless Quadrupole moment (field-independent basis, Debye-Ang):
   XX=             -1.9074   YY=              0.9459   ZZ=              0.9615
   XY=              0.2653   XZ=             -0.1571   YZ=              0.0144
 Octapole moment (field-independent basis, Debye-Ang**2):
  XXX=            -18.9283  YYY=              1.4699  ZZZ=             -0.3056  XYY=             -5.4657
  XXY=              0.7415  XXZ=             -0.4399  XZZ=             -5.5083  YZZ=              0.5444
  YYZ=             -0.8880  XYZ=             -0.0437
 Hexadecapole moment (field-independent basis, Debye-Ang**3):
 XXXX=            -65.1897 YYYY=            -16.4441 ZZZZ=            -16.2599 XXXY=              2.4018
 XXXZ=             -1.4229 YYYX=              2.1530 YYYZ=              0.0177 ZZZX=             -1.6155
 ZZZY=              0.1453 XXYY=            -13.1327 XXZZ=            -13.0040 YYZZ=             -5.3920
 XXYZ=              0.1233 YYXZ=             -0.0669 ZZXY=              0.6850
 N-N= 3.727677399047D+01 E-N=-4.047815161182D+02  KE= 1.385217287900D+02
 Unable to Open any file for archive entry.
 1\1\GINC-DALE\FOpt\RPBE1PBE\def2SVP\C1H3F1\THIJS\31-May-2024\0\\# PBE1
 PBE Def2SVP EmpiricalDispersion=GD3BJ Opt=(loose, maxcycles=10) NoSymm
  scrf=(smd,solvent=Water)\\p0_CFH3_conf0_opt_g16\\0,1\C,-0.0551072166,
 0.0050910475,-0.0030258189\F,1.316745479,-0.1213764635,0.0719385221\H,
 -0.3099888092,0.9206409427,-0.5596013482\H,-0.4770097256,-0.8694283394
 ,-0.5227587324\H,-0.4747397276,0.0651728028,1.0134473774\\Version=ES64
 L-G16RevC.01\HF=-139.4837583\RMSD=5.161e-09\RMSF=6.768e-04\Dipole=-0.8
 360174,0.0770781,-0.0456835\Quadrupole=-1.4180742,0.7032545,0.7148197,
 0.1972291,-0.1167885,0.0107341\PG=C01 [X(C1H3F1)]\\@
 The archive entry for this job was punched.


 TOM, TOM, THE BURGLAR'S SON
 STOLE A MACHINE AND AWAY HE RUN
 THE JOB WAS NEAT, BUT TOM GOT BEAT
 BY THE TIME HE GOT HOME IT WAS OBSOLETE.
 Job cpu time:       0 days  0 hours  1 minutes  6.7 seconds.
 Elapsed time:       0 days  0 hours  0 minutes 20.4 seconds.
 File lengths (MBytes):  RWF=     10 Int=      0 D2E=      0 Chk=      2 Scr=      1
 Normal termination of Gaussian 16 at Fri May 31 17:47:43 2024.
