      -----------------------------------------------------------      
     |                   =====================                   |     
     |                           x T B                           |     
     |                   =====================                   |     
     |                         S. Grimme                         |     
     |          Mulliken Center for Theoretical Chemistry        |     
     |                    University of Bonn                     |     
      -----------------------------------------------------------      

   * xtb version 6.3.3 (71d3805) compiled by 'conda@b85dec0bf610' on 2021-01-07

   xtb is free software: you can redistribute it and/or modify it under
   the terms of the GNU Lesser General Public License as published by
   the Free Software Foundation, either version 3 of the License, or
   (at your option) any later version.
   
   xtb is distributed in the hope that it will be useful,
   but WITHOUT ANY WARRANTY; without even the implied warranty of
   MERCHANTABILITY or FITNESS FOR A PARTICULAR PURPOSE.  See the
   GNU Lesser General Public License for more details.
   
   Cite this work as:
   * C. Bannwarth, E. Caldeweyher, S. Ehlert, A. Hansen, P. Pracht,
     J. Seibert, S. Spicher, S. Grimme, WIREs Comput. Mol. Sci., 2020,
     e01493. DOI: 10.1002/wcms.1493
   
   for GFN2-xTB:
   * S. Grimme, C. Bannwarth, P. Shushkov, J. Chem. Theory Comput., 2017,
     13, 1989-2009. DOI: 10.1021/acs.jctc.7b00118
   for GFN1-xTB:
   * C. Bannwarth, S. Ehlert and S. Grimme., J. Chem. Theory Comput., 2019,
     15, 1652-1671. DOI: 10.1021/acs.jctc.8b01176
   for GFN0-xTB:
   * P. Pracht, E. Caldeweyher, S. Ehlert, S. Grimme, ChemRxiv, 2019, preprint.
     DOI: 10.26434/chemrxiv.8326202.v1
   for GFN-FF:
   * S. Spicher and S. Grimme, Angew. Chem. Int. Ed., 2020, 59, 15665-15673.
     DOI: 10.1002/anie.202004239
   
   for DFT-D4:
   * E. Caldeweyher, C. Bannwarth and S. Grimme, J. Chem. Phys., 2017,
     147, 034112. DOI: 10.1063/1.4993215
   * E. Caldeweyher, S. Ehlert, A. Hansen, H. Neugebauer, S. Spicher,
     C. Bannwarth and S. Grimme, J. Chem. Phys., 2019, 150, 154122.
     DOI: 10.1063/1.5090222
   * E. Caldeweyher, J.-M. Mewes, S. Ehlert and S. Grimme, Phys. Chem. Chem. Phys.
     2020, 22, 8499-8512. DOI: 10.1039/D0CP00502A
   
   for sTDA-xTB:
   * S. Grimme and C. Bannwarth, J. Chem. Phys., 2016, 145, 054103.
     DOI: 10.1063/1.4959605
   
   in the mass-spec context:
   * V. Asgeirsson, C. Bauer and S. Grimme, Chem. Sci., 2017, 8, 4879.
     DOI: 10.1039/c7sc00601b
   * J. Koopman and S. Grimme, ACS Omega 2019, 4, 12, 15120-15133.
     DOI: 10.1021/acsomega.9b02011
   
   for metadynamics refer to:
   * S. Grimme, J. Chem. Theory Comput., 2019, 155, 2847-2862
     DOI: 10.1021/acs.jctc.9b00143
   
   with help from (in alphabetical order)
   C. Bannwarth, F. Bohle, G. Brandenburg, E. Caldeweyher, M. Checinski,
   S. Dohm, S. Ehlert, S. Ehrlich, F. März, H. Neugebauer, J. Pisarek,
   P. Pracht, P. Shushkov, and S. Spicher.
   
 * started run on 2024/05/31 at 17:47:03.893     

           -------------------------------------------------
          |                Calculation Setup                |
           -------------------------------------------------

          program call               : /home/thijs/miniconda3/envs/ts-tools/bin/xtb r0_CClH3_conf0_opt_xtb.xyz --chrg 0 --uhf 0 --opt --gbsa Water
          hostname                   : dale
          coordinate file            : r0_CClH3_conf0_opt_xtb.xyz
          omp threads                :                     4
          number of atoms            :                     5
          number of electrons        :                    14
          charge                     :                     0
          spin                       :                   0.0
          first test random number   :      0.63322644118558

   ID    Z sym.   atoms
    1    6 C      1
    2   17 Cl     2
    3    1 H      3-5

           -------------------------------------------------
          |                 G F N 2 - x T B                 |
           -------------------------------------------------

        Reference                      10.1021/acs.jctc.8b01176
      * Hamiltonian:
        H0-scaling (s, p, d)           1.850000    2.230000    2.230000
        zeta-weighting                 0.500000
      * Dispersion:
        s8                             2.700000
        a1                             0.520000
        a2                             5.000000
        s9                             5.000000
      * Repulsion:
        kExp                           1.500000    1.000000
        rExp                           1.000000
      * Coulomb:
        alpha                          2.000000
        third order                    shell-resolved
        anisotropic                    true
        a3                             3.000000
        a5                             4.000000
        cn-shift                       1.200000
        cn-exp                         4.000000
        max-rad                        5.000000

      * Solvation model:               GBSA
        Solvent                        Water
        Parameter file                 internal GFN2-xTB/GBSA
        Dielectric constant                8.0200E+01
        Reference state                gsolv [1 M gas/solution]
        Free energy shift                  1.8574E-03 Eh       1.1656E+00 kcal/mol
        Temperature                        2.9815E+02 K
        Density                            1.0000E+00 kg/L
        Solvent mass                       1.8000E+01 g/mol
        Interaction kernel             Still
        Born radius scaling (c1)           1.5524E+00
        Born radii integrator          GBOBC
        Born offset                        2.4628E-02 a0       4.6540E-02 AA
        H-bond correction              true
        Ion screening                  false
        Surface tension                    1.0000E-05 Eh       1.5569E+01 dyn/cm
        Grid points                               230 per atom

          ...................................................
          :                      SETUP                      :
          :.................................................:
          :  # basis functions                  17          :
          :  # atomic orbitals                  16          :
          :  # shells                            8          :
          :  # electrons                        14          :
          :  max. iterations                   250          :
          :  Hamiltonian                  GFN2-xTB          :
          :  restarted?                      false          :
          :  GBSA solvation                   true          :
          :  PC potential                    false          :
          :  electronic temp.          300.0000000     K    :
          :  accuracy                    1.0000000          :
          :  -> integral cutoff          0.2500000E+02      :
          :  -> integral neglect         0.1000000E-07      :
          :  -> SCF convergence          0.1000000E-05 Eh   :
          :  -> wf. convergence          0.1000000E-03 e    :
          :  Broyden damping             0.4000000          :
          ...................................................

 iter      E             dE          RMSdq      gap      omega  full diag
   1     -8.2388973 -0.823890E+01  0.503E+00    7.64       0.0  T
   2     -8.2572149 -0.183175E-01  0.288E+00    7.20       1.0  T
   3     -8.2574674 -0.252551E-03  0.118E+00    7.25       1.0  T
   4     -8.2575603 -0.929094E-04  0.966E-02    7.22       1.0  T
   5     -8.2575601  0.265413E-06  0.170E-02    7.22       2.6  T
   6     -8.2575607 -0.609391E-06  0.690E-03    7.22       6.5  T
   7     -8.2575608 -0.105921E-06  0.377E-03    7.22      11.9  T
   8     -8.2575608 -0.358597E-07  0.211E-03    7.21      21.2  T
   9     -8.2575608 -0.987820E-08  0.225E-04    7.21     198.5  T
  10     -8.2575608 -0.711342E-10  0.945E-05    7.21     473.1  T

   *** convergence criteria satisfied after 10 iterations ***

         #    Occupation            Energy/Eh            Energy/eV
      -------------------------------------------------------------
         1        2.0000           -1.0560524             -28.7366
         2        2.0000           -0.6064268             -16.5017
         3        2.0000           -0.5082474             -13.8301
         4        2.0000           -0.5040492             -13.7159
         5        2.0000           -0.5009388             -13.6312
         6        2.0000           -0.4158730             -11.3165
         7        2.0000           -0.4146937             -11.2844 (HOMO)
         8                         -0.1495632              -4.0698 (LUMO)
         9                          0.0153780               0.4185
        10                          0.0174228               0.4741
        11                          0.0246141               0.6698
        12                          0.0246406               0.6705
       ...                                ...                  ...
        16                          0.1903876               5.1807
      -------------------------------------------------------------
                  HL-Gap            0.2651305 Eh            7.2146 eV
             Fermi-level           -0.2821284 Eh           -7.6771 eV

 SCC (total)                   0 d,  0 h,  0 min,  0.004 sec
 SCC setup                      ...        0 min,  0.000 sec (  7.817%)
 Dispersion                     ...        0 min,  0.000 sec (  0.718%)
 classical contributions        ...        0 min,  0.000 sec (  0.742%)
 integral evaluation            ...        0 min,  0.001 sec ( 20.182%)
 iterations                     ...        0 min,  0.002 sec ( 49.710%)
 molecular gradient             ...        0 min,  0.001 sec ( 17.436%)
 printout                       ...        0 min,  0.000 sec (  3.125%)

         :::::::::::::::::::::::::::::::::::::::::::::::::::::
         ::                     SUMMARY                     ::
         :::::::::::::::::::::::::::::::::::::::::::::::::::::
         :: total energy              -8.210416249423 Eh    ::
         :: total w/o Gsasa/hb        -8.210438750656 Eh    ::
         :: gradient norm              0.039056630078 Eh/a0 ::
         :: HOMO-LUMO gap              7.214567812555 eV    ::
         ::.................................................::
         :: SCC energy                -8.257560815909 Eh    ::
         :: -> isotropic ES            0.008072150266 Eh    ::
         :: -> anisotropic ES         -0.000006334602 Eh    ::
         :: -> anisotropic XC          0.004415211568 Eh    ::
         :: -> dispersion             -0.001272718335 Eh    ::
         :: -> Gsolv                  -0.002790991423 Eh    ::
         ::    -> Gborn               -0.002813492656 Eh    ::
         ::    -> Gsasa               -0.001092676520 Eh    ::
         ::    -> Ghb                 -0.000742265374 Eh    ::
         ::    -> Gshift               0.001857443127 Eh    ::
         :: repulsion energy           0.047144528047 Eh    ::
         :: add. restraining           0.000000000000 Eh    ::
         :: total charge              -0.000000000000 e     ::
         :::::::::::::::::::::::::::::::::::::::::::::::::::::

      ----------------------------------------------------------- 
     |                   =====================                   |
     |                        A N C O P T                        |
     |                   =====================                   |
     |               Approximate Normal Coordinate               |
     |                Rational Function Optimizer                |
      ----------------------------------------------------------- 

          ...................................................
          :                      SETUP                      :
          :.................................................:
          :   optimization level            normal          :
          :   max. optcycles                   200          :
          :   ANC micro-cycles                  20          :
          :   degrees of freedom                 9          :
          :.................................................:
          :   RF solver                   davidson          :
          :   write xtbopt.log                true          :
          :   linear?                        false          :
          :   energy convergence         0.5000000E-05 Eh   :
          :   grad. convergence          0.1000000E-02 Eh/α :
          :   maximium RF displ.         1.0000000          :
          :   Hlow (freq-cutoff)         0.1000000E-01      :
          :   Hmax (freq-cutoff)         5.0000000          :
          :   S6 in model hess.         20.0000000          :
          ...................................................

generating ANC from model Hessian ...
Using Lindh-Hessian (1995)
 Shifting diagonal of input Hessian by    0.0000000000000000     
 Lowest  eigenvalues of input Hessian
    0.000000    0.000000    0.000000    0.000000    0.000000    0.000000
    0.066326    0.068938    0.095049    0.095719    0.117065    0.397914
    0.970526    1.033992    1.136377
 Highest eigenvalues
    0.095719    0.117065    0.397914    0.970526    1.033992    1.136377


........................................................................
.............................. CYCLE    1 ..............................
........................................................................
   1     -8.2575608 -0.825756E+01  0.247E-05    7.21       0.0  T
   2     -8.2575608 -0.820677E-12  0.128E-05    7.21    3502.7  T
   3     -8.2575608 -0.639488E-13  0.946E-06    7.21    4728.3  T
     SCC iter.                  ...        0 min,  0.001 sec
     gradient                   ...        0 min,  0.001 sec
 * total energy  :    -8.2104162 Eh     change       -0.1405809E-10 Eh
   gradient norm :     0.0390562 Eh/α   predicted     0.0000000E+00 (-100.00%)
   displ. norm   :     0.1366843 α      lambda       -0.3455885E-02
   maximum displ.:     0.0909331 α      in ANC's #3, #6, #1, ...

........................................................................
.............................. CYCLE    2 ..............................
........................................................................
   1     -8.2661556 -0.826616E+01  0.412E-01    7.27       0.0  T
   2     -8.2661583 -0.270297E-05  0.243E-01    7.27       1.0  T
   3     -8.2661595 -0.122812E-05  0.151E-02    7.27       3.0  T
   4     -8.2661596 -0.101847E-06  0.105E-02    7.27       4.3  T
   5     -8.2661597 -0.134556E-06  0.582E-03    7.27       7.7  T
   6     -8.2661599 -0.106370E-06  0.132E-03    7.26      33.9  T
   7     -8.2661599 -0.408923E-08  0.550E-04    7.26      81.4  T
   8     -8.2661599 -0.224823E-09  0.198E-04    7.26     226.3  T
     SCC iter.                  ...        0 min,  0.001 sec
     gradient                   ...        0 min,  0.001 sec
 * total energy  :    -8.2124303 Eh     change       -0.2014087E-02 Eh
   gradient norm :     0.0152879 Eh/α   predicted    -0.1760226E-02 ( -12.60%)
   displ. norm   :     0.0283215 α      lambda       -0.3458188E-03
   maximum displ.:     0.0180354 α      in ANC's #6, #9, #1, ...

........................................................................
.............................. CYCLE    3 ..............................
........................................................................
   1     -8.2694376 -0.826944E+01  0.741E-02    7.20       0.0  T
   2     -8.2694396 -0.193785E-05  0.431E-02    7.20       1.0  T
   3     -8.2694400 -0.469373E-06  0.183E-02    7.20       2.4  T
   4     -8.2694403 -0.249104E-06  0.115E-02    7.21       3.9  T
   5     -8.2694406 -0.301296E-06  0.546E-03    7.21       8.2  T
   6     -8.2694407 -0.899438E-07  0.345E-04    7.21     129.4  T
   7     -8.2694407 -0.901625E-10  0.182E-04    7.21     246.0  T
     SCC iter.                  ...        0 min,  0.001 sec
     gradient                   ...        0 min,  0.001 sec
 * total energy  :    -8.2126243 Eh     change       -0.1939873E-03 Eh
   gradient norm :     0.0057276 Eh/α   predicted    -0.1730487E-03 ( -10.79%)
   displ. norm   :     0.0097778 α      lambda       -0.5095882E-04
   maximum displ.:     0.0076468 α      in ANC's #9, #5, #6, ...

........................................................................
.............................. CYCLE    4 ..............................
........................................................................
   1     -8.2694591 -0.826946E+01  0.354E-02    7.15       0.0  T
   2     -8.2694593 -0.197776E-06  0.236E-02    7.15       1.9  T
   3     -8.2694596 -0.296299E-06  0.888E-03    7.16       5.0  T
   4     -8.2694597 -0.808381E-07  0.745E-03    7.16       6.0  T
   5     -8.2694599 -0.185763E-06  0.124E-03    7.16      35.9  T
   6     -8.2694599 -0.105502E-08  0.549E-05    7.16     814.5  T
   7     -8.2694599 -0.113332E-11  0.375E-05    7.16    1192.2  T
     SCC iter.                  ...        0 min,  0.001 sec
     gradient                   ...        0 min,  0.001 sec
 * total energy  :    -8.2126607 Eh     change       -0.3635279E-04 Eh
   gradient norm :     0.0027432 Eh/α   predicted    -0.2548037E-04 ( -29.91%)
   displ. norm   :     0.0084711 α      lambda       -0.2251420E-04
   maximum displ.:     0.0059853 α      in ANC's #6, #9, #1, ...

........................................................................
.............................. CYCLE    5 ..............................
........................................................................
   1     -8.2691400 -0.826914E+01  0.293E-02    7.11       0.0  T
   2     -8.2691401 -0.173899E-06  0.204E-02    7.11       2.2  T
   3     -8.2691404 -0.291545E-06  0.827E-03    7.11       5.4  T
   4     -8.2691405 -0.752955E-07  0.680E-03    7.11       6.6  T
   5     -8.2691407 -0.157271E-06  0.138E-03    7.11      32.3  T
   6     -8.2691407 -0.137655E-08  0.658E-05    7.11     679.4  T
   7     -8.2691407 -0.460076E-12  0.272E-05    7.11    1643.1  T
     SCC iter.                  ...        0 min,  0.001 sec
     gradient                   ...        0 min,  0.001 sec
 * total energy  :    -8.2126726 Eh     change       -0.1190436E-04 Eh
   gradient norm :     0.0003461 Eh/α   predicted    -0.1125733E-04 (  -5.44%)
   displ. norm   :     0.0013798 α      lambda       -0.2312624E-06
   maximum displ.:     0.0008547 α      in ANC's #6, #1, #5, ...

........................................................................
.............................. CYCLE    6 ..............................
........................................................................
   1     -8.2690737 -0.826907E+01  0.434E-03    7.11       0.0  T
   2     -8.2690737 -0.179850E-08  0.279E-03    7.11      16.0  T
   3     -8.2690737 -0.273556E-08  0.834E-04    7.11      53.6  T
   4     -8.2690737 -0.793895E-09  0.677E-04    7.11      66.1  T
     SCC iter.                  ...        0 min,  0.001 sec
     gradient                   ...        0 min,  0.001 sec
 * total energy  :    -8.2126727 Eh     change       -0.1160123E-06 Eh
   gradient norm :     0.0001052 Eh/α   predicted    -0.1158147E-06 (  -0.17%)
   displ. norm   :     0.0004074 α      lambda       -0.2422300E-07
   maximum displ.:     0.0002846 α      in ANC's #6, #5, #9, ...

   *** GEOMETRY OPTIMIZATION CONVERGED AFTER 6 ITERATIONS ***

------------------------------------------------------------------------
 total energy gain   :        -0.0022564 Eh       -1.4159 kcal/mol
 total RMSD          :         0.0671096 a0        0.0355 Å
 total power (kW/mol):        -0.9873836 (step) -324.0723 (real)
------------------------------------------------------------------------

 ANCopt (total)                0 d,  0 h,  0 min,  0.018 sec
 optimizer setup                ...        0 min,  0.000 sec (  0.560%)
 model hessian                  ...        0 min,  0.001 sec (  3.470%)
 ANC generation                 ...        0 min,  0.000 sec (  0.726%)
 coordinate transformation      ...        0 min,  0.000 sec (  0.099%)
 single point calculation       ...        0 min,  0.016 sec ( 88.845%)
 optimization log               ...        0 min,  0.000 sec (  1.703%)
 hessian update                 ...        0 min,  0.000 sec (  0.148%)
 rational function              ...        0 min,  0.000 sec (  2.278%)

================
 final structure:
================
5
 xtb: 6.3.3 (71d3805)
C        -0.15839716423891   -0.00763794061606    0.00099990166256
Cl        1.62820040832824    0.07850605476303   -0.00988762567399
H        -0.46978918050685   -0.55266042327627   -0.88334739969589
H        -0.46022281277732   -0.52569732353659    0.90464006238666
H        -0.53989125080516    1.00748963266589   -0.01230493867934

 Bond Distances (Angstroems)
 ---------------------------
C1-Cl2=1.7887        C1-H3=1.0845         C1-H4=1.0845         C1-H5=1.0845         Cl2-C1=1.7887        H3-C1=1.0845         
H4-C1=1.0845         H5-C1=1.0845         
 C  H  Rav=1.0845 sigma=0.0000  Rmin=1.0845  Rmax=1.0845     3
 Cl C  Rav=1.7887 sigma=0.0000  Rmin=1.7887  Rmax=1.7887     1

 selected bond angles (degree)
 --------------------
H3-C1-Cl2=107.82               H4-C1-Cl2=107.82               H4-C1-H3=111.07                H5-C1-Cl2=107.83               
H5-C1-H3=111.06                H5-C1-H4=111.07                

 selected dihedral angles (degree)
 ---------------------------------

           -------------------------------------------------
          |                Final Singlepoint                |
           -------------------------------------------------

          ...................................................
          :                      SETUP                      :
          :.................................................:
          :  # basis functions                  17          :
          :  # atomic orbitals                  16          :
          :  # shells                            8          :
          :  # electrons                        14          :
          :  max. iterations                   250          :
          :  Hamiltonian                  GFN2-xTB          :
          :  restarted?                      false          :
          :  GBSA solvation                   true          :
          :  PC potential                    false          :
          :  electronic temp.          300.0000000     K    :
          :  accuracy                    1.0000000          :
          :  -> integral cutoff          0.2500000E+02      :
          :  -> integral neglect         0.1000000E-07      :
          :  -> SCF convergence          0.1000000E-05 Eh   :
          :  -> wf. convergence          0.1000000E-03 e    :
          :  Broyden damping             0.4000000          :
          ...................................................

 iter      E             dE          RMSdq      gap      omega  full diag
   1     -8.2690737 -0.826907E+01  0.204E-04    7.11       0.0  T
   2     -8.2690737 -0.143334E-10  0.148E-04    7.11     302.1  T
   3     -8.2690737 -0.258407E-10  0.803E-05    7.11     557.2  T

   *** convergence criteria satisfied after 3 iterations ***

         #    Occupation            Energy/Eh            Energy/eV
      -------------------------------------------------------------
         1        2.0000           -1.0560054             -28.7354
         2        2.0000           -0.6091453             -16.5757
         3        2.0000           -0.5082776             -13.8309
         4        2.0000           -0.5082707             -13.8308
         5        2.0000           -0.4995684             -13.5939
         6        2.0000           -0.4158737             -11.3165
         7        2.0000           -0.4158726             -11.3165 (HOMO)
         8                         -0.1545872              -4.2065 (LUMO)
         9                          0.0199372               0.5425
        10                          0.0199413               0.5426
        11                          0.0251540               0.6845
        12                          0.0251541               0.6845
       ...                                ...                  ...
        16                          0.2194084               5.9704
      -------------------------------------------------------------
                  HL-Gap            0.2612854 Eh            7.1099 eV
             Fermi-level           -0.2852299 Eh           -7.7615 eV

 SCC (total)                   0 d,  0 h,  0 min,  0.002 sec
 SCC setup                      ...        0 min,  0.000 sec ( 11.256%)
 Dispersion                     ...        0 min,  0.000 sec (  0.627%)
 classical contributions        ...        0 min,  0.000 sec (  0.216%)
 integral evaluation            ...        0 min,  0.001 sec ( 33.259%)
 iterations                     ...        0 min,  0.001 sec ( 22.149%)
 molecular gradient             ...        0 min,  0.001 sec ( 26.504%)
 printout                       ...        0 min,  0.000 sec (  5.599%)

         :::::::::::::::::::::::::::::::::::::::::::::::::::::
         ::                     SUMMARY                     ::
         :::::::::::::::::::::::::::::::::::::::::::::::::::::
         :: total energy              -8.212672698291 Eh    ::
         :: total w/o Gsasa/hb        -8.212599247460 Eh    ::
         :: gradient norm              0.000096689992 Eh/a0 ::
         :: HOMO-LUMO gap              7.109936768417 eV    ::
         ::.................................................::
         :: SCC energy                -8.269073705149 Eh    ::
         :: -> isotropic ES            0.008736083916 Eh    ::
         :: -> anisotropic ES         -0.000736958795 Eh    ::
         :: -> anisotropic XC          0.004353575624 Eh    ::
         :: -> dispersion             -0.001261315038 Eh    ::
         :: -> Gsolv                  -0.003108925104 Eh    ::
         ::    -> Gborn               -0.003035474273 Eh    ::
         ::    -> Gsasa               -0.001093140513 Eh    ::
         ::    -> Ghb                 -0.000837753445 Eh    ::
         ::    -> Gshift               0.001857443127 Eh    ::
         :: repulsion energy           0.056400971139 Eh    ::
         :: add. restraining           0.000000000000 Eh    ::
         :: total charge               0.000000000000 e     ::
         :::::::::::::::::::::::::::::::::::::::::::::::::::::

           -------------------------------------------------
          |                Property Printout                |
           -------------------------------------------------

    * Orbital Energies and Occupations

         #    Occupation            Energy/Eh            Energy/eV
      -------------------------------------------------------------
         1        2.0000           -1.0560054             -28.7354
         2        2.0000           -0.6091453             -16.5757
         3        2.0000           -0.5082776             -13.8309
         4        2.0000           -0.5082707             -13.8308
         5        2.0000           -0.4995684             -13.5939
         6        2.0000           -0.4158737             -11.3165
         7        2.0000           -0.4158726             -11.3165 (HOMO)
         8                         -0.1545872              -4.2065 (LUMO)
         9                          0.0199372               0.5425
        10                          0.0199413               0.5426
        11                          0.0251540               0.6845
        12                          0.0251541               0.6845
        13                          0.1141604               3.1065
        14                          0.1604893               4.3671
        15                          0.2193214               5.9680
        16                          0.2194084               5.9704
      -------------------------------------------------------------
                  HL-Gap            0.2612854 Eh            7.1099 eV
             Fermi-level           -0.2852299 Eh           -7.7615 eV

     #   Z          covCN         q      C6AA      α(0)
     1   6 C        3.662    -0.036    21.493     6.651
     2  17 Cl       0.887    -0.249   107.036    15.828
     3   1 H        0.925     0.095     1.831     2.116
     4   1 H        0.925     0.095     1.831     2.116
     5   1 H        0.925     0.095     1.831     2.116

 Mol. C6AA /au·bohr⁶  :        362.039548
 Mol. C8AA /au·bohr⁸  :      11195.099083
 Mol. α(0) /au        :         28.826232


Wiberg/Mayer (AO) data.
largest (>0.10) Wiberg bond orders for each atom

 ---------------------------------------------------------------------------
     #   Z sym  total        # sym  WBO       # sym  WBO       # sym  WBO
 ---------------------------------------------------------------------------
     1   6 C    3.905 --     3 H    0.985     4 H    0.985     5 H    0.985
                             2 Cl   0.949
     2  17 Cl   0.966 --     1 C    0.949
     3   1 H    0.991 --     1 C    0.985
     4   1 H    0.991 --     1 C    0.985
     5   1 H    0.991 --     1 C    0.985
 ---------------------------------------------------------------------------

Topologies differ in total number of bonds
Writing topology from bond orders to xtbtopo.mol

molecular dipole:
                 x           y           z       tot (Debye)
 q only:       -1.020      -0.049       0.006
   full:       -0.869      -0.042       0.005       2.211
molecular quadrupole (traceless):
                xx          xy          yy          xz          yz          zz
 q only:       -2.658      -0.193       1.324       0.024       0.001       1.333
  q+dip:       -3.267      -0.237       1.628       0.030       0.001       1.639
   full:       -2.166      -0.157       1.079       0.020       0.001       1.087

           -------------------------------------------------
          |                Geometry Summary                 |
           -------------------------------------------------

      molecular mass/u    :       50.4874957
   center of mass at/Å    :        1.0763149       0.0518961      -0.0065259
  moments of inertia/u·Å² :        0.3223130E+01   0.3822468E+02   0.3822474E+02
rotational constants/cm⁻¹ :        0.5230206E+01   0.4410144E+00   0.4410137E+00

 * 4 selected distances

     #   Z          #   Z                                           value/Å
     1   6 C        2  17 Cl                                      1.7887063 (max)
     1   6 C        3   1 H                                       1.0844744
     1   6 C        4   1 H                                       1.0844583 (min)
     1   6 C        5   1 H                                       1.0845270

 * 2 distinct bonds (by element types)

   Z      Z             #   av. dist./Å        max./Å        min./Å
   1 H    6 C           3     1.0844865     1.0845270     1.0844583
   6 C   17 Cl          1     1.7887063     1.7887063     1.7887063


optimized geometry written to: xtbopt.xyz


           -------------------------------------------------
          | TOTAL ENERGY               -8.212672698291 Eh   |
          | GRADIENT NORM               0.000096689992 Eh/α |
          | HOMO-LUMO GAP               7.109936768417 eV   |
           -------------------------------------------------

------------------------------------------------------------------------
 * finished run on 2024/05/31 at 17:47:03.963     
------------------------------------------------------------------------
 total:
 * wall-time:     0 d,  0 h,  0 min,  0.070 sec
 *  cpu-time:     0 d,  0 h,  0 min,  0.352 sec
 * ratio c/w:     5.041 speedup
 SCF:
 * wall-time:     0 d,  0 h,  0 min,  0.004 sec
 *  cpu-time:     0 d,  0 h,  0 min,  0.030 sec
 * ratio c/w:     6.966 speedup
 ANC optimizer:
 * wall-time:     0 d,  0 h,  0 min,  0.021 sec
 *  cpu-time:     0 d,  0 h,  0 min,  0.150 sec
 * ratio c/w:     6.981 speedup

