Job Start Time: Wed Nov 24 00:07:26 MST 2021
SLURM Job ID: 9185512
SLURM Job Name: b-TS-I-S0_def2TZVP
 Entering Gaussian System, Link 0=/projects/rpaton@colostate.edu/g16/g16
 Initial command:
 /projects/rpaton@colostate.edu/g16/l1.exe "/gpfs/summit/scratch/jvalegre@colostate.edu/9185512/Gau-124888.inp" -scrdir="/gpfs/summit/scratch/jvalegre@colostate.edu/9185512/"
 Entering Link 1 = /projects/rpaton@colostate.edu/g16/l1.exe PID=    124889.
  
 Copyright (c) 1988-2019, Gaussian, Inc.  All Rights Reserved.
  
 This is part of the Gaussian(R) 16 program.  It is based on
 the Gaussian(R) 09 system (copyright 2009, Gaussian, Inc.),
 the Gaussian(R) 03 system (copyright 2003, Gaussian, Inc.),
 the Gaussian(R) 98 system (copyright 1998, Gaussian, Inc.),
 the Gaussian(R) 94 system (copyright 1995, Gaussian, Inc.),
 the Gaussian 92(TM) system (copyright 1992, Gaussian, Inc.),
 the Gaussian 90(TM) system (copyright 1990, Gaussian, Inc.),
 the Gaussian 88(TM) system (copyright 1988, Gaussian, Inc.),
 the Gaussian 86(TM) system (copyright 1986, Carnegie Mellon
 University), and the Gaussian 82(TM) system (copyright 1983,
 Carnegie Mellon University). Gaussian is a federally registered
 trademark of Gaussian, Inc.
  
 This software contains proprietary and confidential information,
 including trade secrets, belonging to Gaussian, Inc.
  
 This software is provided under written license and may be
 used, copied, transmitted, or stored only in accord with that
 written license.
  
 The following legend is applicable only to US Government
 contracts under FAR:
  
                    RESTRICTED RIGHTS LEGEND
  
 Use, reproduction and disclosure by the US Government is
 subject to restrictions as set forth in subparagraphs (a)
 and (c) of the Commercial Computer Software - Restricted
 Rights clause in FAR 52.227-19.
  
 Gaussian, Inc.
 340 Quinnipiac St., Bldg. 40, Wallingford CT 06492
  
  
 ---------------------------------------------------------------
 Warning -- This program may not be used in any manner that
 competes with the business of Gaussian, Inc. or will provide
 assistance to any competitor of Gaussian, Inc.  The licensee
 of this program is prohibited from giving any competitor of
 Gaussian, Inc. access to this program.  By using this program,
 the user acknowledges that Gaussian, Inc. is engaged in the
 business of creating and licensing software in the field of
 computational chemistry and represents and warrants to the
 licensee that it is not a competitor of Gaussian, Inc. and that
 it will not use this program in any manner prohibited above.
 ---------------------------------------------------------------
  

 Cite this work as:
 Gaussian 16, Revision C.01,
 M. J. Frisch, G. W. Trucks, H. B. Schlegel, G. E. Scuseria, 
 M. A. Robb, J. R. Cheeseman, G. Scalmani, V. Barone, 
 G. A. Petersson, H. Nakatsuji, X. Li, M. Caricato, A. V. Marenich, 
 J. Bloino, B. G. Janesko, R. Gomperts, B. Mennucci, H. P. Hratchian, 
 J. V. Ortiz, A. F. Izmaylov, J. L. Sonnenberg, D. Williams-Young, 
 F. Ding, F. Lipparini, F. Egidi, J. Goings, B. Peng, A. Petrone, 
 T. Henderson, D. Ranasinghe, V. G. Zakrzewski, J. Gao, N. Rega, 
 G. Zheng, W. Liang, M. Hada, M. Ehara, K. Toyota, R. Fukuda, 
 J. Hasegawa, M. Ishida, T. Nakajima, Y. Honda, O. Kitao, H. Nakai, 
 T. Vreven, K. Throssell, J. A. Montgomery, Jr., J. E. Peralta, 
 F. Ogliaro, M. J. Bearpark, J. J. Heyd, E. N. Brothers, K. N. Kudin, 
 V. N. Staroverov, T. A. Keith, R. Kobayashi, J. Normand, 
 K. Raghavachari, A. P. Rendell, J. C. Burant, S. S. Iyengar, 
 J. Tomasi, M. Cossi, J. M. Millam, M. Klene, C. Adamo, R. Cammi, 
 J. W. Ochterski, R. L. Martin, K. Morokuma, O. Farkas, 
 J. B. Foresman, and D. J. Fox, Gaussian, Inc., Wallingford CT, 2019.
 
 ******************************************
 Gaussian 16:  ES64L-G16RevC.01  3-Jul-2019
                24-Nov-2021 
 ******************************************
 %mem=24GB
 %nprocshared=12
 Will use up to   12 processors via shared memory.
 %chk=Int23.chk
 ----------------------------------------------------------------------
 # uM062X/Def2TZVP guess=read geom=check opt=(calcfc,ts,noeigen,maxstep
 =5) freq=noraman
 ----------------------------------------------------------------------
 1/5=1,8=5,10=4,11=1,18=20,26=3,29=2,38=1/1,3;
 2/9=110,12=2,40=1/2;
 3/5=44,7=101,11=2,14=-4,25=1,30=1,71=2,74=-55,116=2,140=1/1,2,3;
 4/5=1/1;
 5/5=2,38=6/2;
 8/6=4,10=90,11=11/1;
 11/6=1,8=1,9=11,15=111,16=1/1,2,10;
 10/6=1,13=1/2;
 6/7=2,8=2,9=2,10=2,28=1/1;
 7/10=1,25=1/1,2,3,16;
 1/5=1,8=5,10=4,11=1,18=20,26=3/3(2);
 2/9=110/2;
 99//99;
 2/9=110/2;
 3/5=44,7=101,11=2,14=-2,25=1,30=1,71=1,74=-55,116=2/1,2,3;
 4/5=5,16=3,69=1/1;
 5/5=2,38=5/2;
 7//1,2,3,16;
 1/5=1,8=5,11=1,18=20,26=3/3(-5);
 2/9=110/2;
 6/7=2,8=2,9=2,10=2,19=2,28=1/1;
 99/9=1/99;
 -------------------
 Title Card Required
 -------------------
 Structure from the checkpoint file:  "Int23.chk"
 Charge =  0 Multiplicity = 1
 Z-Matrix found in chk file.
 C,0,-0.125738,1.390894,0.868772
 C,0,-1.39474,1.246554,0.067359
 C,0,-1.969982,0.033163,-0.290968
 C,0,-1.281133,-1.27301,0.088718
 C,0,-0.179427,-1.088335,1.154571
 C,0,0.677213,0.105733,0.807895
 C,0,1.914002,-0.027923,-0.052193
 C,0,2.453436,1.194347,-0.747628
 C,0,2.287975,-1.359939,-0.649276
 H,0,-1.893492,2.16181,-0.245638
 H,0,-2.030056,-1.993651,0.438463
 H,0,0.396816,-2.011751,1.253387
 H,0,-0.655042,-0.914312,2.129229
 H,0,1.911184,0.074466,1.249667
 H,0,1.839288,1.473078,-1.620392
 H,0,2.49082,2.07163,-0.093823
 H,0,3.470975,1.015149,-1.109422
 H,0,2.117654,-2.197654,0.031922
 H,0,3.346861,-1.376792,-0.927953
 H,0,1.709703,-1.569771,-1.565256
 H,0,0.43706,2.253516,0.499205
 C,0,-3.156363,-0.024703,-1.005561
 H,0,-0.37603,1.635311,1.916055
 H,0,-0.837117,-1.709564,-0.815384
 H,0,-3.669216,0.879274,-1.315592
 H,0,-3.610867,-0.971426,-1.274598
 Recover connectivity data from disk.
 Add virtual bond connecting atoms H14        and C6         Dist= 2.48D+00.
 Add virtual bond connecting atoms H14        and C7         Dist= 2.47D+00.

 GradGradGradGradGradGradGradGradGradGradGradGradGradGradGradGradGradGrad
 Berny optimization.
 Initialization pass.
                           ----------------------------
                           !    Initial Parameters    !
                           ! (Angstroms and Degrees)  !
 --------------------------                            --------------------------
 ! Name  Definition              Value          Derivative Info.                !
 --------------------------------------------------------------------------------
 ! R1    R(1,2)                  1.5078         calculate D2E/DX2 analytically  !
 ! R2    R(1,6)                  1.5166         calculate D2E/DX2 analytically  !
 ! R3    R(1,21)                 1.0943         calculate D2E/DX2 analytically  !
 ! R4    R(1,23)                 1.1042         calculate D2E/DX2 analytically  !
 ! R5    R(2,3)                  1.3898         calculate D2E/DX2 analytically  !
 ! R6    R(2,10)                 1.0883         calculate D2E/DX2 analytically  !
 ! R7    R(3,4)                  1.5247         calculate D2E/DX2 analytically  !
 ! R8    R(3,22)                 1.3862         calculate D2E/DX2 analytically  !
 ! R9    R(4,5)                  1.544          calculate D2E/DX2 analytically  !
 ! R10   R(4,11)                 1.0966         calculate D2E/DX2 analytically  !
 ! R11   R(4,24)                 1.0978         calculate D2E/DX2 analytically  !
 ! R12   R(5,6)                  1.5099         calculate D2E/DX2 analytically  !
 ! R13   R(5,12)                 1.0929         calculate D2E/DX2 analytically  !
 ! R14   R(5,13)                 1.0984         calculate D2E/DX2 analytically  !
 ! R15   R(6,7)                  1.5124         calculate D2E/DX2 analytically  !
 ! R16   R(6,14)                 1.311          calculate D2E/DX2 analytically  !
 ! R17   R(7,8)                  1.5062         calculate D2E/DX2 analytically  !
 ! R18   R(7,9)                  1.5069         calculate D2E/DX2 analytically  !
 ! R19   R(7,14)                 1.3059         calculate D2E/DX2 analytically  !
 ! R20   R(8,15)                 1.103          calculate D2E/DX2 analytically  !
 ! R21   R(8,16)                 1.0948         calculate D2E/DX2 analytically  !
 ! R22   R(8,17)                 1.0947         calculate D2E/DX2 analytically  !
 ! R23   R(9,18)                 1.0931         calculate D2E/DX2 analytically  !
 ! R24   R(9,19)                 1.0951         calculate D2E/DX2 analytically  !
 ! R25   R(9,20)                 1.1034         calculate D2E/DX2 analytically  !
 ! R26   R(22,25)                1.0846         calculate D2E/DX2 analytically  !
 ! R27   R(22,26)                1.0841         calculate D2E/DX2 analytically  !
 ! A1    A(2,1,6)              110.068          calculate D2E/DX2 analytically  !
 ! A2    A(2,1,21)             109.1968         calculate D2E/DX2 analytically  !
 ! A3    A(2,1,23)             109.5446         calculate D2E/DX2 analytically  !
 ! A4    A(6,1,21)             112.467          calculate D2E/DX2 analytically  !
 ! A5    A(6,1,23)             110.2223         calculate D2E/DX2 analytically  !
 ! A6    A(21,1,23)            105.2134         calculate D2E/DX2 analytically  !
 ! A7    A(1,2,3)              124.6774         calculate D2E/DX2 analytically  !
 ! A8    A(1,2,10)             117.2618         calculate D2E/DX2 analytically  !
 ! A9    A(3,2,10)             118.0601         calculate D2E/DX2 analytically  !
 ! A10   A(2,3,4)              119.7831         calculate D2E/DX2 analytically  !
 ! A11   A(2,3,22)             121.5736         calculate D2E/DX2 analytically  !
 ! A12   A(4,3,22)             118.6385         calculate D2E/DX2 analytically  !
 ! A13   A(3,4,5)              113.0672         calculate D2E/DX2 analytically  !
 ! A14   A(3,4,11)             109.502          calculate D2E/DX2 analytically  !
 ! A15   A(3,4,24)             108.5611         calculate D2E/DX2 analytically  !
 ! A16   A(5,4,11)             110.2275         calculate D2E/DX2 analytically  !
 ! A17   A(5,4,24)             109.1165         calculate D2E/DX2 analytically  !
 ! A18   A(11,4,24)            106.1149         calculate D2E/DX2 analytically  !
 ! A19   A(4,5,6)              109.9328         calculate D2E/DX2 analytically  !
 ! A20   A(4,5,12)             109.7288         calculate D2E/DX2 analytically  !
 ! A21   A(4,5,13)             108.8165         calculate D2E/DX2 analytically  !
 ! A22   A(6,5,12)             112.9414         calculate D2E/DX2 analytically  !
 ! A23   A(6,5,13)             108.9118         calculate D2E/DX2 analytically  !
 ! A24   A(12,5,13)            106.3757         calculate D2E/DX2 analytically  !
 ! A25   A(1,6,5)              111.1338         calculate D2E/DX2 analytically  !
 ! A26   A(1,6,7)              122.0517         calculate D2E/DX2 analytically  !
 ! A27   A(1,6,14)             120.3315         calculate D2E/DX2 analytically  !
 ! A28   A(5,6,7)              121.6448         calculate D2E/DX2 analytically  !
 ! A29   A(5,6,14)             115.9616         calculate D2E/DX2 analytically  !
 ! A30   A(6,7,8)              118.9308         calculate D2E/DX2 analytically  !
 ! A31   A(6,7,9)              120.4258         calculate D2E/DX2 analytically  !
 ! A32   A(8,7,9)              116.4557         calculate D2E/DX2 analytically  !
 ! A33   A(8,7,14)             113.4186         calculate D2E/DX2 analytically  !
 ! A34   A(9,7,14)             117.7015         calculate D2E/DX2 analytically  !
 ! A35   A(7,8,15)             111.7774         calculate D2E/DX2 analytically  !
 ! A36   A(7,8,16)             112.7545         calculate D2E/DX2 analytically  !
 ! A37   A(7,8,17)             110.6499         calculate D2E/DX2 analytically  !
 ! A38   A(15,8,16)            106.8022         calculate D2E/DX2 analytically  !
 ! A39   A(15,8,17)            107.302          calculate D2E/DX2 analytically  !
 ! A40   A(16,8,17)            107.2662         calculate D2E/DX2 analytically  !
 ! A41   A(7,9,18)             113.0698         calculate D2E/DX2 analytically  !
 ! A42   A(7,9,19)             110.7579         calculate D2E/DX2 analytically  !
 ! A43   A(7,9,20)             111.5296         calculate D2E/DX2 analytically  !
 ! A44   A(18,9,19)            107.3056         calculate D2E/DX2 analytically  !
 ! A45   A(18,9,20)            106.8545         calculate D2E/DX2 analytically  !
 ! A46   A(19,9,20)            107.0128         calculate D2E/DX2 analytically  !
 ! A47   A(3,22,25)            121.1494         calculate D2E/DX2 analytically  !
 ! A48   A(3,22,26)            121.548          calculate D2E/DX2 analytically  !
 ! A49   A(25,22,26)           117.3024         calculate D2E/DX2 analytically  !
 ! D1    D(6,1,2,3)             19.9109         calculate D2E/DX2 analytically  !
 ! D2    D(6,1,2,10)          -160.3983         calculate D2E/DX2 analytically  !
 ! D3    D(21,1,2,3)           143.8287         calculate D2E/DX2 analytically  !
 ! D4    D(21,1,2,10)          -36.4805         calculate D2E/DX2 analytically  !
 ! D5    D(23,1,2,3)          -101.4343         calculate D2E/DX2 analytically  !
 ! D6    D(23,1,2,10)           78.2565         calculate D2E/DX2 analytically  !
 ! D7    D(2,1,6,5)            -50.7028         calculate D2E/DX2 analytically  !
 ! D8    D(2,1,6,7)            104.2108         calculate D2E/DX2 analytically  !
 ! D9    D(2,1,6,14)           168.9494         calculate D2E/DX2 analytically  !
 ! D10   D(21,1,6,5)          -172.7011         calculate D2E/DX2 analytically  !
 ! D11   D(21,1,6,7)           -17.7875         calculate D2E/DX2 analytically  !
 ! D12   D(21,1,6,14)           46.9512         calculate D2E/DX2 analytically  !
 ! D13   D(23,1,6,5)            70.2367         calculate D2E/DX2 analytically  !
 ! D14   D(23,1,6,7)          -134.8497         calculate D2E/DX2 analytically  !
 ! D15   D(23,1,6,14)          -70.111          calculate D2E/DX2 analytically  !
 ! D16   D(1,2,3,4)             -2.2449         calculate D2E/DX2 analytically  !
 ! D17   D(1,2,3,22)           178.5655         calculate D2E/DX2 analytically  !
 ! D18   D(10,2,3,4)           178.0666         calculate D2E/DX2 analytically  !
 ! D19   D(10,2,3,22)           -1.123          calculate D2E/DX2 analytically  !
 ! D20   D(2,3,4,5)             14.7068         calculate D2E/DX2 analytically  !
 ! D21   D(2,3,4,11)           138.0387         calculate D2E/DX2 analytically  !
 ! D22   D(2,3,4,24)          -106.5233         calculate D2E/DX2 analytically  !
 ! D23   D(22,3,4,5)          -166.0798         calculate D2E/DX2 analytically  !
 ! D24   D(22,3,4,11)          -42.7479         calculate D2E/DX2 analytically  !
 ! D25   D(22,3,4,24)           72.6901         calculate D2E/DX2 analytically  !
 ! D26   D(2,3,22,25)            0.5503         calculate D2E/DX2 analytically  !
 ! D27   D(2,3,22,26)         -179.2582         calculate D2E/DX2 analytically  !
 ! D28   D(4,3,22,25)         -178.6484         calculate D2E/DX2 analytically  !
 ! D29   D(4,3,22,26)            1.5432         calculate D2E/DX2 analytically  !
 ! D30   D(3,4,5,6)            -44.9715         calculate D2E/DX2 analytically  !
 ! D31   D(3,4,5,12)          -169.7591         calculate D2E/DX2 analytically  !
 ! D32   D(3,4,5,13)            74.2247         calculate D2E/DX2 analytically  !
 ! D33   D(11,4,5,6)          -167.9017         calculate D2E/DX2 analytically  !
 ! D34   D(11,4,5,12)           67.3107         calculate D2E/DX2 analytically  !
 ! D35   D(11,4,5,13)          -48.7055         calculate D2E/DX2 analytically  !
 ! D36   D(24,4,5,6)            75.9442         calculate D2E/DX2 analytically  !
 ! D37   D(24,4,5,12)          -48.8434         calculate D2E/DX2 analytically  !
 ! D38   D(24,4,5,13)         -164.8596         calculate D2E/DX2 analytically  !
 ! D39   D(4,5,6,1)             64.9241         calculate D2E/DX2 analytically  !
 ! D40   D(4,5,6,7)            -90.1075         calculate D2E/DX2 analytically  !
 ! D41   D(4,5,6,14)          -152.8534         calculate D2E/DX2 analytically  !
 ! D42   D(12,5,6,1)          -172.1594         calculate D2E/DX2 analytically  !
 ! D43   D(12,5,6,7)            32.809          calculate D2E/DX2 analytically  !
 ! D44   D(12,5,6,14)          -29.9369         calculate D2E/DX2 analytically  !
 ! D45   D(13,5,6,1)           -54.2138         calculate D2E/DX2 analytically  !
 ! D46   D(13,5,6,7)           150.7546         calculate D2E/DX2 analytically  !
 ! D47   D(13,5,6,14)           88.0087         calculate D2E/DX2 analytically  !
 ! D48   D(1,6,7,8)              7.0205         calculate D2E/DX2 analytically  !
 ! D49   D(1,6,7,9)           -149.1777         calculate D2E/DX2 analytically  !
 ! D50   D(5,6,7,8)            159.3402         calculate D2E/DX2 analytically  !
 ! D51   D(5,6,7,9)              3.1421         calculate D2E/DX2 analytically  !
 ! D52   D(6,7,8,15)           -75.2335         calculate D2E/DX2 analytically  !
 ! D53   D(6,7,8,16)            45.106          calculate D2E/DX2 analytically  !
 ! D54   D(6,7,8,17)           165.2405         calculate D2E/DX2 analytically  !
 ! D55   D(9,7,8,15)            81.8927         calculate D2E/DX2 analytically  !
 ! D56   D(9,7,8,16)          -157.7678         calculate D2E/DX2 analytically  !
 ! D57   D(9,7,8,17)           -37.6333         calculate D2E/DX2 analytically  !
 ! D58   D(14,7,8,15)         -136.72           calculate D2E/DX2 analytically  !
 ! D59   D(14,7,8,16)          -16.3804         calculate D2E/DX2 analytically  !
 ! D60   D(14,7,8,17)          103.754          calculate D2E/DX2 analytically  !
 ! D61   D(6,7,9,18)           -39.4544         calculate D2E/DX2 analytically  !
 ! D62   D(6,7,9,19)          -159.932          calculate D2E/DX2 analytically  !
 ! D63   D(6,7,9,20)            80.997          calculate D2E/DX2 analytically  !
 ! D64   D(8,7,9,18)           163.782          calculate D2E/DX2 analytically  !
 ! D65   D(8,7,9,19)            43.3044         calculate D2E/DX2 analytically  !
 ! D66   D(8,7,9,20)           -75.7666         calculate D2E/DX2 analytically  !
 ! D67   D(14,7,9,18)           24.0812         calculate D2E/DX2 analytically  !
 ! D68   D(14,7,9,19)          -96.3964         calculate D2E/DX2 analytically  !
 ! D69   D(14,7,9,20)          144.5326         calculate D2E/DX2 analytically  !
 --------------------------------------------------------------------------------
 Trust Radius=5.00D-02 FncErr=1.00D-07 GrdErr=1.00D-06 EigMax=2.50D+02 EigMin=1.00D-04
 Number of steps in this run=    155 maximum allowed number of steps=    156.
 Search for a saddle point of order  1.
 GradGradGradGradGradGradGradGradGradGradGradGradGradGradGradGradGradGrad

                          Input orientation:                          
 ---------------------------------------------------------------------
 Center     Atomic      Atomic             Coordinates (Angstroms)
 Number     Number       Type             X           Y           Z
 ---------------------------------------------------------------------
      1          6           0       -0.125738    1.390894    0.868772
      2          6           0       -1.394740    1.246554    0.067359
      3          6           0       -1.969982    0.033163   -0.290968
      4          6           0       -1.281133   -1.273010    0.088718
      5          6           0       -0.179427   -1.088335    1.154571
      6          6           0        0.677213    0.105733    0.807895
      7          6           0        1.914002   -0.027923   -0.052193
      8          6           0        2.453436    1.194347   -0.747628
      9          6           0        2.287975   -1.359939   -0.649276
     10          1           0       -1.893492    2.161810   -0.245638
     11          1           0       -2.030056   -1.993651    0.438463
     12          1           0        0.396816   -2.011751    1.253387
     13          1           0       -0.655042   -0.914312    2.129229
     14          1           0        1.911184    0.074466    1.249667
     15          1           0        1.839288    1.473078   -1.620392
     16          1           0        2.490820    2.071630   -0.093823
     17          1           0        3.470975    1.015149   -1.109422
     18          1           0        2.117654   -2.197654    0.031922
     19          1           0        3.346861   -1.376792   -0.927953
     20          1           0        1.709703   -1.569771   -1.565256
     21          1           0        0.437060    2.253516    0.499205
     22          6           0       -3.156363   -0.024703   -1.005561
     23          1           0       -0.376030    1.635311    1.916055
     24          1           0       -0.837117   -1.709564   -0.815384
     25          1           0       -3.669216    0.879274   -1.315592
     26          1           0       -3.610867   -0.971426   -1.274598
 ---------------------------------------------------------------------
                    Distance matrix (angstroms):
                    1          2          3          4          5
     1  C    0.000000
     2  C    1.507801   0.000000
     3  C    2.567035   1.389827   0.000000
     4  C    3.006627   2.522214   1.524717   0.000000
     5  C    2.496225   2.847933   2.559966   1.543990   0.000000
     6  C    1.516600   2.478478   2.867125   2.500653   1.509906
     7  C    2.649860   3.547726   3.891796   3.432053   2.638787
     8  C    3.050167   3.933877   4.596032   4.553497   3.970008
     9  C    3.962015   4.568343   4.494365   3.645644   3.068502
    10  H    2.227370   1.088308   2.130503   3.504963   3.932181
    11  H    3.907267   3.322691   2.154914   1.096600   2.181109
    12  H    3.463955   3.902933   3.488329   2.172028   1.092940
    13  H    2.680091   3.076980   2.912753   2.164333   1.098386
    14  H    2.455018   3.701456   4.175968   3.654365   2.394119
    15  H    3.172384   3.654963   4.283837   4.494339   4.282110
    16  H    2.869907   3.975463   4.908459   5.044558   4.321352
    17  H    4.121987   5.011342   5.589112   5.408673   4.782859
    18  H    4.314024   4.919424   4.667930   3.522775   2.787025
    19  H    4.790329   5.509571   5.537377   4.739485   4.105462
    20  H    4.249573   4.498298   4.211091   3.430568   3.346349
    21  H    1.094275   2.134468   3.368708   3.944245   3.460857
    22  C    3.834283   2.422925   1.386179   2.504437   3.828790
    23  H    1.104168   2.146294   3.158878   3.552000   2.834918
    24  H    3.599345   3.135094   2.143710   1.097784   2.167765
    25  H    4.193976   2.687134   2.157117   3.508184   4.706572
    26  H    4.724480   3.410499   2.160840   2.716108   4.205866
                    6          7          8          9         10
     6  C    0.000000
     7  C    1.512370   0.000000
     8  C    2.599942   1.506175   0.000000
     9  C    2.620324   1.506861   2.561528   0.000000
    10  H    3.456285   4.396517   4.481491   5.481816   0.000000
    11  H    3.445751   4.434008   5.627774   4.497795   4.213609
    12  H    2.181931   2.818149   4.302652   2.760701   4.991112
    13  H    2.135724   3.484864   4.731320   4.071857   4.078759
    14  H    1.311039   1.305883   2.353159   2.409455   4.590044
    15  H    3.019375   2.172058   1.102989   3.028262   4.037072
    16  H    2.822590   2.177745   1.094753   3.482146   4.387866
    17  H    3.508311   2.151720   1.094711   2.693003   5.553239
    18  H    2.825349   2.180890   3.496587   1.093072   5.930536
    19  H    3.512559   2.153947   2.727908   1.095073   6.359918
    20  H    3.083050   2.169883   2.976912   1.103380   5.352486
    21  H    2.183102   2.773150   2.596575   4.219236   2.448402
    22  C    4.242869   5.159217   5.746517   5.616993   2.636886
    23  H    2.162625   3.447404   3.910951   4.759135   2.693104
    24  H    2.867670   3.313462   4.389195   3.148973   4.053156
    25  H    4.898878   5.795818   6.157006   6.398920   2.437806
    26  H    4.887195   5.736606   6.460963   5.944603   3.718239
                   11         12         13         14         15
    11  H    0.000000
    12  H    2.560105   0.000000
    13  H    2.431939   1.754388   0.000000
    14  H    4.524216   2.577911   2.887356   0.000000
    15  H    5.588284   4.741663   5.097153   3.193513   0.000000
    16  H    6.103127   4.782659   4.873834   2.475804   1.764418
    17  H    6.458341   4.918886   5.588890   2.980459   1.770082
    18  H    4.172576   2.118448   3.705875   2.586129   4.035084
    19  H    5.582011   3.723464   5.057220   2.984853   3.297576
    20  H    4.263844   3.140663   4.435185   3.266175   3.046106
    21  H    4.912105   4.331618   3.726231   2.735780   2.658574
    22  C    2.688964   4.655780   4.107909   5.547605   5.251466
    23  H    4.253051   3.786487   2.573688   2.848097   4.176172
    24  H    1.753836   2.427699   3.055540   3.873029   4.235610
    25  H    3.743962   5.611621   4.916196   6.194282   5.548795
    26  H    2.545287   4.851238   4.508459   6.161075   5.983257
                   16         17         18         19         20
    16  H    0.000000
    17  H    1.763036   0.000000
    18  H    4.287406   3.668276   0.000000
    19  H    3.649684   2.402024   1.762420   0.000000
    20  H    4.004380   3.160961   1.763984   1.767394   0.000000
    21  H    2.145389   3.650462   4.780760   4.866504   4.527598
    22  C    6.092336   6.709224   5.797701   6.642747   5.136058
    23  H    3.528288   4.933311   4.945709   5.569656   5.171301
    24  H    5.088540   5.105896   3.112367   4.198700   2.658598
    25  H    6.392220   7.144459   6.691124   7.380070   5.915482
    26  H    6.919899   7.357054   6.002215   6.978142   5.361993
                   21         22         23         24         25
    21  H    0.000000
    22  C    4.513014   0.000000
    23  H    1.746642   4.361392   0.000000
    24  H    4.365510   2.872947   4.342988   0.000000
    25  H    4.695054   1.084579   4.675490   3.869506   0.000000
    26  H    5.471046   1.084085   5.238274   2.906788   1.852073
                   26
    26  H    0.000000
 Stoichiometry    C10H16
 Framework group  C1[X(C10H16)]
 Deg. of freedom    72
 Full point group                 C1      NOp   1
 Largest Abelian subgroup         C1      NOp   1
 Largest concise Abelian subgroup C1      NOp   1
                         Standard orientation:                         
 ---------------------------------------------------------------------
 Center     Atomic      Atomic             Coordinates (Angstroms)
 Number     Number       Type             X           Y           Z
 ---------------------------------------------------------------------
      1          6           0       -0.125738    1.390894    0.868772
      2          6           0       -1.394740    1.246554    0.067359
      3          6           0       -1.969982    0.033163   -0.290968
      4          6           0       -1.281133   -1.273010    0.088718
      5          6           0       -0.179427   -1.088335    1.154571
      6          6           0        0.677213    0.105733    0.807895
      7          6           0        1.914002   -0.027923   -0.052193
      8          6           0        2.453436    1.194347   -0.747628
      9          6           0        2.287975   -1.359939   -0.649276
     10          1           0       -1.893492    2.161810   -0.245638
     11          1           0       -2.030056   -1.993651    0.438463
     12          1           0        0.396816   -2.011751    1.253387
     13          1           0       -0.655042   -0.914312    2.129229
     14          1           0        1.911184    0.074466    1.249667
     15          1           0        1.839288    1.473078   -1.620392
     16          1           0        2.490820    2.071630   -0.093823
     17          1           0        3.470975    1.015149   -1.109422
     18          1           0        2.117654   -2.197654    0.031922
     19          1           0        3.346861   -1.376792   -0.927953
     20          1           0        1.709703   -1.569771   -1.565256
     21          1           0        0.437060    2.253516    0.499205
     22          6           0       -3.156363   -0.024703   -1.005561
     23          1           0       -0.376030    1.635311    1.916055
     24          1           0       -0.837117   -1.709564   -0.815384
     25          1           0       -3.669216    0.879274   -1.315592
     26          1           0       -3.610867   -0.971426   -1.274598
 ---------------------------------------------------------------------
 Rotational constants (GHZ):           2.1136864           0.9095535           0.7991634
 Standard basis: def2TZVP (5D, 7F)
 There are   456 symmetry adapted cartesian basis functions of A   symmetry.
 There are   406 symmetry adapted basis functions of A   symmetry.
   406 basis functions,   638 primitive gaussians,   456 cartesian basis functions
    38 alpha electrons       38 beta electrons
       nuclear repulsion energy       534.8058243581 Hartrees.
 NAtoms=   26 NActive=   26 NUniq=   26 SFac= 1.00D+00 NAtFMM=   60 NAOKFM=F Big=F
 Integral buffers will be    131072 words long.
 Raffenetti 2 integral format.
 Two-electron integral symmetry is turned on.
 One-electron integrals computed using PRISM.
   1 Symmetry operations used in ECPInt.
 ECPInt:  NShTT=   15225 NPrTT=   44224 LenC2=   14785 LenP2D=   33725.
 LDataN:  DoStor=T MaxTD1= 6 Len=  172
 NBasis=   406 RedAO= T EigKep=  5.94D-05  NBF=   406
 NBsUse=   406 1.00D-06 EigRej= -1.00D+00 NBFU=   406
 Initial guess from the checkpoint file:  "Int23.chk"
 B after Tr=    -0.000000   -0.000000    0.000000
         Rot=    1.000000   -0.000000   -0.000000   -0.000000 Ang=   0.00 deg.
 Initial guess <Sx>= 0.0000 <Sy>= 0.0000 <Sz>= 0.0000 <S**2>= 1.0237 S= 0.6286
 Requested convergence on RMS density matrix=1.00D-08 within 128 cycles.
 Requested convergence on MAX density matrix=1.00D-06.
 Requested convergence on             energy=1.00D-06.
 No special actions if energy rises.
 SCF Done:  E(UM062X) =  -390.465472277     A.U. after    1 cycles
            NFock=  1  Conv=0.64D-09     -V/T= 2.0058
 <Sx>= 0.0000 <Sy>= 0.0000 <Sz>= 0.0000 <S**2>= 1.0237 S= 0.6286
 <L.S>= 0.000000000000E+00
 Annihilation of the first spin contaminant:
 S**2 before annihilation     1.0237,   after     0.2796
 DoSCS=F DFT=T ScalE2(SS,OS)=  1.000000  1.000000
 Range of M.O.s used for correlation:     1   406
 NBasis=   406 NAE=    38 NBE=    38 NFC=     0 NFV=     0
 NROrb=    406 NOA=    38 NOB=    38 NVA=   368 NVB=   368

 **** Warning!!: The largest alpha MO coefficient is  0.26489928D+02


 **** Warning!!: The largest beta MO coefficient is  0.28297227D+02

   1 Symmetry operations used in ECPInt.
 ECPInt:  NShTT=   15225 NPrTT=   44224 LenC2=   14785 LenP2D=   33725.
 LDataN:  DoStor=T MaxTD1= 7 Len=  274
 Symmetrizing basis deriv contribution to polar:
 IMax=3 JMax=2 DiffMx= 0.00D+00
 G2DrvN: will do    27 centers at a time, making    1 passes.
 Calling FoFCou, ICntrl=  3107 FMM=F I1Cent=   0 AccDes= 0.00D+00.
 End of G2Drv F.D. properties file   721 does not exist.
 End of G2Drv F.D. properties file   722 does not exist.
 End of G2Drv F.D. properties file   788 does not exist.
          IDoAtm=11111111111111111111111111
          Differentiating once with respect to nuclear coordinates.
 CalDSu exits because no D1Ps are significant.
          There are    81 degrees of freedom in the 1st order CPHF.  IDoFFX=6 NUNeed=     0.
     75 vectors produced by pass  0 Test12= 3.45D-14 1.23D-09 XBig12= 1.81D-01 1.58D-01.
 AX will form    75 AO Fock derivatives at one time.
     75 vectors produced by pass  1 Test12= 3.45D-14 1.23D-09 XBig12= 2.31D-02 4.73D-02.
     75 vectors produced by pass  2 Test12= 3.45D-14 1.23D-09 XBig12= 8.99D-04 8.36D-03.
     75 vectors produced by pass  3 Test12= 3.45D-14 1.23D-09 XBig12= 2.03D-05 7.13D-04.
     75 vectors produced by pass  4 Test12= 3.45D-14 1.23D-09 XBig12= 2.46D-07 4.93D-05.
     75 vectors produced by pass  5 Test12= 3.45D-14 1.23D-09 XBig12= 2.73D-09 4.48D-06.
     75 vectors produced by pass  6 Test12= 3.45D-14 1.23D-09 XBig12= 2.33D-11 4.17D-07.
     32 vectors produced by pass  7 Test12= 3.45D-14 1.23D-09 XBig12= 1.59D-13 2.65D-08.
      2 vectors produced by pass  8 Test12= 3.45D-14 1.23D-09 XBig12= 1.02D-15 2.10D-09.
 InvSVY:  IOpt=1 It=  1 EMax= 1.11D-15
 Solved reduced A of dimension   559 with    81 vectors.
 End of Minotr F.D. properties file   721 does not exist.
 End of Minotr F.D. properties file   722 does not exist.
 End of Minotr F.D. properties file   788 does not exist.

 **********************************************************************

            Population analysis using the SCF Density.

 **********************************************************************

 Orbital symmetries:
 Alpha Orbitals:
       Occupied  (A) (A) (A) (A) (A) (A) (A) (A) (A) (A) (A) (A)
                 (A) (A) (A) (A) (A) (A) (A) (A) (A) (A) (A) (A)
                 (A) (A) (A) (A) (A) (A) (A) (A) (A) (A) (A) (A)
                 (A) (A)
       Virtual   (A) (A) (A) (A) (A) (A) (A) (A) (A) (A) (A) (A)
                 (A) (A) (A) (A) (A) (A) (A) (A) (A) (A) (A) (A)
                 (A) (A) (A) (A) (A) (A) (A) (A) (A) (A) (A) (A)
                 (A) (A) (A) (A) (A) (A) (A) (A) (A) (A) (A) (A)
                 (A) (A) (A) (A) (A) (A) (A) (A) (A) (A) (A) (A)
                 (A) (A) (A) (A) (A) (A) (A) (A) (A) (A) (A) (A)
                 (A) (A) (A) (A) (A) (A) (A) (A) (A) (A) (A) (A)
                 (A) (A) (A) (A) (A) (A) (A) (A) (A) (A) (A) (A)
                 (A) (A) (A) (A) (A) (A) (A) (A) (A) (A) (A) (A)
                 (A) (A) (A) (A) (A) (A) (A) (A) (A) (A) (A) (A)
                 (A) (A) (A) (A) (A) (A) (A) (A) (A) (A) (A) (A)
                 (A) (A) (A) (A) (A) (A) (A) (A) (A) (A) (A) (A)
                 (A) (A) (A) (A) (A) (A) (A) (A) (A) (A) (A) (A)
                 (A) (A) (A) (A) (A) (A) (A) (A) (A) (A) (A) (A)
                 (A) (A) (A) (A) (A) (A) (A) (A) (A) (A) (A) (A)
                 (A) (A) (A) (A) (A) (A) (A) (A) (A) (A) (A) (A)
                 (A) (A) (A) (A) (A) (A) (A) (A) (A) (A) (A) (A)
                 (A) (A) (A) (A) (A) (A) (A) (A) (A) (A) (A) (A)
                 (A) (A) (A) (A) (A) (A) (A) (A) (A) (A) (A) (A)
                 (A) (A) (A) (A) (A) (A) (A) (A) (A) (A) (A) (A)
                 (A) (A) (A) (A) (A) (A) (A) (A) (A) (A) (A) (A)
                 (A) (A) (A) (A) (A) (A) (A) (A) (A) (A) (A) (A)
                 (A) (A) (A) (A) (A) (A) (A) (A) (A) (A) (A) (A)
                 (A) (A) (A) (A) (A) (A) (A) (A) (A) (A) (A) (A)
                 (A) (A) (A) (A) (A) (A) (A) (A) (A) (A) (A) (A)
                 (A) (A) (A) (A) (A) (A) (A) (A) (A) (A) (A) (A)
                 (A) (A) (A) (A) (A) (A) (A) (A) (A) (A) (A) (A)
                 (A) (A) (A) (A) (A) (A) (A) (A) (A) (A) (A) (A)
                 (A) (A) (A) (A) (A) (A) (A) (A) (A) (A) (A) (A)
                 (A) (A) (A) (A) (A) (A) (A) (A) (A) (A) (A) (A)
                 (A) (A) (A) (A) (A) (A) (A) (A)
 Beta  Orbitals:
       Occupied  (A) (A) (A) (A) (A) (A) (A) (A) (A) (A) (A) (A)
                 (A) (A) (A) (A) (A) (A) (A) (A) (A) (A) (A) (A)
                 (A) (A) (A) (A) (A) (A) (A) (A) (A) (A) (A) (A)
                 (A) (A)
       Virtual   (A) (A) (A) (A) (A) (A) (A) (A) (A) (A) (A) (A)
                 (A) (A) (A) (A) (A) (A) (A) (A) (A) (A) (A) (A)
                 (A) (A) (A) (A) (A) (A) (A) (A) (A) (A) (A) (A)
                 (A) (A) (A) (A) (A) (A) (A) (A) (A) (A) (A) (A)
                 (A) (A) (A) (A) (A) (A) (A) (A) (A) (A) (A) (A)
                 (A) (A) (A) (A) (A) (A) (A) (A) (A) (A) (A) (A)
                 (A) (A) (A) (A) (A) (A) (A) (A) (A) (A) (A) (A)
                 (A) (A) (A) (A) (A) (A) (A) (A) (A) (A) (A) (A)
                 (A) (A) (A) (A) (A) (A) (A) (A) (A) (A) (A) (A)
                 (A) (A) (A) (A) (A) (A) (A) (A) (A) (A) (A) (A)
                 (A) (A) (A) (A) (A) (A) (A) (A) (A) (A) (A) (A)
                 (A) (A) (A) (A) (A) (A) (A) (A) (A) (A) (A) (A)
                 (A) (A) (A) (A) (A) (A) (A) (A) (A) (A) (A) (A)
                 (A) (A) (A) (A) (A) (A) (A) (A) (A) (A) (A) (A)
                 (A) (A) (A) (A) (A) (A) (A) (A) (A) (A) (A) (A)
                 (A) (A) (A) (A) (A) (A) (A) (A) (A) (A) (A) (A)
                 (A) (A) (A) (A) (A) (A) (A) (A) (A) (A) (A) (A)
                 (A) (A) (A) (A) (A) (A) (A) (A) (A) (A) (A) (A)
                 (A) (A) (A) (A) (A) (A) (A) (A) (A) (A) (A) (A)
                 (A) (A) (A) (A) (A) (A) (A) (A) (A) (A) (A) (A)
                 (A) (A) (A) (A) (A) (A) (A) (A) (A) (A) (A) (A)
                 (A) (A) (A) (A) (A) (A) (A) (A) (A) (A) (A) (A)
                 (A) (A) (A) (A) (A) (A) (A) (A) (A) (A) (A) (A)
                 (A) (A) (A) (A) (A) (A) (A) (A) (A) (A) (A) (A)
                 (A) (A) (A) (A) (A) (A) (A) (A) (A) (A) (A) (A)
                 (A) (A) (A) (A) (A) (A) (A) (A) (A) (A) (A) (A)
                 (A) (A) (A) (A) (A) (A) (A) (A) (A) (A) (A) (A)
                 (A) (A) (A) (A) (A) (A) (A) (A) (A) (A) (A) (A)
                 (A) (A) (A) (A) (A) (A) (A) (A) (A) (A) (A) (A)
                 (A) (A) (A) (A) (A) (A) (A) (A) (A) (A) (A) (A)
                 (A) (A) (A) (A) (A) (A) (A) (A)
 The electronic state is 1-A.
 Alpha  occ. eigenvalues --  -10.54949 -10.54659 -10.54307 -10.54052 -10.53786
 Alpha  occ. eigenvalues --  -10.53505 -10.53444 -10.52897 -10.52829 -10.52590
 Alpha  occ. eigenvalues --   -0.95375  -0.90566  -0.84414  -0.83713  -0.78110
 Alpha  occ. eigenvalues --   -0.75900  -0.70141  -0.69534  -0.61410  -0.56090
 Alpha  occ. eigenvalues --   -0.55724  -0.52379  -0.51430  -0.50389  -0.49911
 Alpha  occ. eigenvalues --   -0.48135  -0.46168  -0.45547  -0.44719  -0.44438
 Alpha  occ. eigenvalues --   -0.42889  -0.42378  -0.41654  -0.39636  -0.36675
 Alpha  occ. eigenvalues --   -0.34118  -0.31538  -0.16794
 Alpha virt. eigenvalues --   -0.03511   0.05329   0.08267   0.09091   0.09397
 Alpha virt. eigenvalues --    0.09723   0.11082   0.11604   0.12274   0.12844
 Alpha virt. eigenvalues --    0.14025   0.14544   0.14897   0.16024   0.17335
 Alpha virt. eigenvalues --    0.17706   0.17913   0.18437   0.19445   0.20727
 Alpha virt. eigenvalues --    0.21454   0.21974   0.22848   0.23097   0.23839
 Alpha virt. eigenvalues --    0.25119   0.25423   0.25978   0.26567   0.27302
 Alpha virt. eigenvalues --    0.29000   0.29998   0.30838   0.31533   0.33276
 Alpha virt. eigenvalues --    0.33763   0.35604   0.35668   0.36372   0.36890
 Alpha virt. eigenvalues --    0.37556   0.38801   0.40277   0.40801   0.41518
 Alpha virt. eigenvalues --    0.43408   0.43809   0.43879   0.44272   0.44997
 Alpha virt. eigenvalues --    0.45067   0.46280   0.46758   0.47301   0.47776
 Alpha virt. eigenvalues --    0.48800   0.49190   0.49307   0.49891   0.50791
 Alpha virt. eigenvalues --    0.51472   0.51715   0.53009   0.53623   0.54739
 Alpha virt. eigenvalues --    0.54943   0.55243   0.55857   0.57252   0.57661
 Alpha virt. eigenvalues --    0.58547   0.60740   0.61438   0.62215   0.63576
 Alpha virt. eigenvalues --    0.64943   0.67636   0.68306   0.69287   0.71048
 Alpha virt. eigenvalues --    0.73372   0.75115   0.76339   0.78148   0.79668
 Alpha virt. eigenvalues --    0.80234   0.81421   0.85106   0.86097   0.88267
 Alpha virt. eigenvalues --    0.88998   0.90018   0.91608   0.93909   0.94720
 Alpha virt. eigenvalues --    0.96202   0.96457   0.96955   0.97898   0.99594
 Alpha virt. eigenvalues --    1.02447   1.02549   1.04719   1.05191   1.06433
 Alpha virt. eigenvalues --    1.07767   1.10389   1.12058   1.13146   1.14152
 Alpha virt. eigenvalues --    1.15051   1.16030   1.17365   1.19436   1.20350
 Alpha virt. eigenvalues --    1.21341   1.21599   1.23372   1.25057   1.25707
 Alpha virt. eigenvalues --    1.27811   1.28451   1.30240   1.32103   1.35512
 Alpha virt. eigenvalues --    1.36529   1.37519   1.39585   1.40703   1.44099
 Alpha virt. eigenvalues --    1.46833   1.47784   1.48866   1.53627   1.54422
 Alpha virt. eigenvalues --    1.56502   1.57652   1.58972   1.60137   1.60413
 Alpha virt. eigenvalues --    1.62199   1.63170   1.63459   1.64297   1.64851
 Alpha virt. eigenvalues --    1.65250   1.66561   1.67274   1.69128   1.69602
 Alpha virt. eigenvalues --    1.70045   1.70343   1.70983   1.73373   1.74343
 Alpha virt. eigenvalues --    1.75648   1.77127   1.79105   1.81439   1.83354
 Alpha virt. eigenvalues --    1.84629   1.86782   1.88465   1.89372   1.90304
 Alpha virt. eigenvalues --    1.93174   1.93852   1.95615   1.97216   1.98516
 Alpha virt. eigenvalues --    1.99338   2.00363   2.03979   2.05396   2.05790
 Alpha virt. eigenvalues --    2.06080   2.09491   2.10463   2.11689   2.12300
 Alpha virt. eigenvalues --    2.13994   2.15122   2.17392   2.19663   2.21529
 Alpha virt. eigenvalues --    2.25606   2.25979   2.27290   2.29333   2.32186
 Alpha virt. eigenvalues --    2.34532   2.35032   2.35821   2.37233   2.38712
 Alpha virt. eigenvalues --    2.39371   2.41014   2.42071   2.43686   2.44571
 Alpha virt. eigenvalues --    2.47453   2.48644   2.49010   2.51086   2.51315
 Alpha virt. eigenvalues --    2.52115   2.52818   2.54760   2.55270   2.56557
 Alpha virt. eigenvalues --    2.57528   2.59097   2.59536   2.60084   2.60886
 Alpha virt. eigenvalues --    2.62478   2.63015   2.64454   2.65200   2.67113
 Alpha virt. eigenvalues --    2.68419   2.69059   2.70802   2.72437   2.73966
 Alpha virt. eigenvalues --    2.75336   2.76744   2.78784   2.78917   2.80059
 Alpha virt. eigenvalues --    2.81599   2.82668   2.85552   2.87367   2.88372
 Alpha virt. eigenvalues --    2.90550   2.92043   2.92629   2.95080   2.96897
 Alpha virt. eigenvalues --    2.99242   3.00499   3.02840   3.04131   3.04796
 Alpha virt. eigenvalues --    3.06219   3.08208   3.09493   3.10143   3.10375
 Alpha virt. eigenvalues --    3.11187   3.12810   3.14257   3.15463   3.16616
 Alpha virt. eigenvalues --    3.17316   3.18249   3.19455   3.20654   3.21384
 Alpha virt. eigenvalues --    3.21478   3.22959   3.23540   3.24703   3.25544
 Alpha virt. eigenvalues --    3.27263   3.27946   3.29068   3.29997   3.30627
 Alpha virt. eigenvalues --    3.31571   3.32486   3.33294   3.35281   3.35385
 Alpha virt. eigenvalues --    3.37215   3.38017   3.38935   3.39500   3.41517
 Alpha virt. eigenvalues --    3.43063   3.44885   3.45582   3.48936   3.49698
 Alpha virt. eigenvalues --    3.51704   3.52127   3.54294   3.55646   3.56308
 Alpha virt. eigenvalues --    3.57822   3.57981   3.60640   3.62864   3.67981
 Alpha virt. eigenvalues --    3.70087   3.71320   3.72710   3.73456   3.74222
 Alpha virt. eigenvalues --    3.75337   3.78489   3.79319   3.79743   3.81108
 Alpha virt. eigenvalues --    3.84136   3.86356   3.88946   3.90146   3.92935
 Alpha virt. eigenvalues --    3.93487   3.94802   3.97427   3.99676   4.01743
 Alpha virt. eigenvalues --    4.03316   4.04483   4.05245   4.08116   4.08579
 Alpha virt. eigenvalues --    4.12007   4.13981   4.16094   4.17894   4.20404
 Alpha virt. eigenvalues --    4.22305   4.24859   4.28513   4.29551   4.32448
 Alpha virt. eigenvalues --    4.33764   4.35169   4.39100   4.42505   4.42862
 Alpha virt. eigenvalues --    4.45865   4.46939   4.49636   4.51416   4.54110
 Alpha virt. eigenvalues --    4.57510   4.60506   4.62815   4.66636   4.68579
 Alpha virt. eigenvalues --    4.72576   4.75804   4.79656   4.83291   4.86246
 Alpha virt. eigenvalues --    4.90933   4.97320   4.99477   5.04151   5.12429
 Alpha virt. eigenvalues --    5.21193   5.23372   5.28599  22.32540  22.47870
 Alpha virt. eigenvalues --   22.51954  22.55687  22.62451  22.64578  22.71263
 Alpha virt. eigenvalues --   22.73545  22.86377  23.10866
  Beta  occ. eigenvalues --  -10.54529 -10.54256 -10.54172 -10.54095 -10.54018
  Beta  occ. eigenvalues --  -10.53522 -10.53409 -10.52990 -10.52908 -10.52855
  Beta  occ. eigenvalues --   -0.94914  -0.90153  -0.84340  -0.84025  -0.77928
  Beta  occ. eigenvalues --   -0.75995  -0.70548  -0.69856  -0.61232  -0.55779
  Beta  occ. eigenvalues --   -0.55104  -0.51879  -0.51386  -0.50503  -0.49613
  Beta  occ. eigenvalues --   -0.48220  -0.45952  -0.45557  -0.44406  -0.44022
  Beta  occ. eigenvalues --   -0.43024  -0.42552  -0.41432  -0.39339  -0.36425
  Beta  occ. eigenvalues --   -0.34863  -0.32339  -0.22659
  Beta virt. eigenvalues --    0.01187   0.05184   0.07034   0.08812   0.09110
  Beta virt. eigenvalues --    0.09705   0.11073   0.11544   0.12250   0.12475
  Beta virt. eigenvalues --    0.13929   0.14502   0.14808   0.15998   0.17329
  Beta virt. eigenvalues --    0.17606   0.17863   0.18593   0.19312   0.20784
  Beta virt. eigenvalues --    0.21746   0.21981   0.22904   0.23267   0.23775
  Beta virt. eigenvalues --    0.25128   0.25511   0.25767   0.26854   0.27459
  Beta virt. eigenvalues --    0.29284   0.29887   0.31039   0.31605   0.33530
  Beta virt. eigenvalues --    0.34411   0.35501   0.35904   0.36679   0.37043
  Beta virt. eigenvalues --    0.37632   0.39004   0.40568   0.41053   0.41818
  Beta virt. eigenvalues --    0.43490   0.43866   0.43969   0.44507   0.44894
  Beta virt. eigenvalues --    0.45069   0.46598   0.46778   0.47354   0.47840
  Beta virt. eigenvalues --    0.48769   0.49094   0.49235   0.50175   0.50971
  Beta virt. eigenvalues --    0.51628   0.51834   0.52871   0.53479   0.54686
  Beta virt. eigenvalues --    0.54988   0.55239   0.56336   0.57409   0.57708
  Beta virt. eigenvalues --    0.58592   0.60507   0.61264   0.62267   0.63699
  Beta virt. eigenvalues --    0.64945   0.67457   0.68595   0.69127   0.71360
  Beta virt. eigenvalues --    0.73808   0.74431   0.76301   0.78269   0.79714
  Beta virt. eigenvalues --    0.80418   0.81522   0.85084   0.86111   0.88519
  Beta virt. eigenvalues --    0.89043   0.89660   0.91606   0.93747   0.94778
  Beta virt. eigenvalues --    0.96073   0.96534   0.96886   0.97840   0.99747
  Beta virt. eigenvalues --    1.02273   1.02560   1.04713   1.04924   1.06517
  Beta virt. eigenvalues --    1.07730   1.10069   1.12116   1.13015   1.13986
  Beta virt. eigenvalues --    1.15239   1.15992   1.17464   1.19702   1.20543
  Beta virt. eigenvalues --    1.21049   1.22099   1.23632   1.25062   1.25657
  Beta virt. eigenvalues --    1.28188   1.28701   1.30555   1.33087   1.35270
  Beta virt. eigenvalues --    1.36297   1.37420   1.40159   1.41032   1.43184
  Beta virt. eigenvalues --    1.47025   1.47513   1.48506   1.51898   1.54038
  Beta virt. eigenvalues --    1.56393   1.57532   1.59403   1.59998   1.60283
  Beta virt. eigenvalues --    1.61598   1.62140   1.63313   1.63821   1.64496
  Beta virt. eigenvalues --    1.65290   1.66582   1.66976   1.68507   1.69472
  Beta virt. eigenvalues --    1.69740   1.70109   1.72239   1.73020   1.74678
  Beta virt. eigenvalues --    1.76212   1.78102   1.79320   1.81774   1.83721
  Beta virt. eigenvalues --    1.84711   1.85844   1.88517   1.89857   1.90672
  Beta virt. eigenvalues --    1.93231   1.93753   1.95807   1.97358   1.98592
  Beta virt. eigenvalues --    1.99732   2.00631   2.04052   2.05449   2.05571
  Beta virt. eigenvalues --    2.06386   2.09726   2.10326   2.11895   2.12495
  Beta virt. eigenvalues --    2.14135   2.14618   2.17475   2.19850   2.21414
  Beta virt. eigenvalues --    2.25393   2.26230   2.27322   2.29594   2.32396
  Beta virt. eigenvalues --    2.34232   2.35437   2.36072   2.37422   2.38632
  Beta virt. eigenvalues --    2.39275   2.41181   2.42408   2.43962   2.44675
  Beta virt. eigenvalues --    2.47689   2.48775   2.49407   2.51324   2.51606
  Beta virt. eigenvalues --    2.52080   2.53106   2.54857   2.55531   2.56170
  Beta virt. eigenvalues --    2.57427   2.58940   2.59639   2.60346   2.60915
  Beta virt. eigenvalues --    2.62399   2.62748   2.64175   2.65033   2.67062
  Beta virt. eigenvalues --    2.68177   2.69124   2.69939   2.71609   2.73932
  Beta virt. eigenvalues --    2.75300   2.76711   2.78427   2.79067   2.80914
  Beta virt. eigenvalues --    2.81608   2.82012   2.86186   2.87743   2.88812
  Beta virt. eigenvalues --    2.90722   2.91155   2.92734   2.93949   2.97696
  Beta virt. eigenvalues --    2.98732   3.00318   3.02590   3.03363   3.04765
  Beta virt. eigenvalues --    3.06701   3.07546   3.08731   3.10186   3.10440
  Beta virt. eigenvalues --    3.11109   3.12312   3.12891   3.15786   3.15852
  Beta virt. eigenvalues --    3.17230   3.18142   3.19632   3.20348   3.21272
  Beta virt. eigenvalues --    3.21732   3.22385   3.22767   3.23785   3.25190
  Beta virt. eigenvalues --    3.27138   3.28068   3.28426   3.29299   3.30323
  Beta virt. eigenvalues --    3.30818   3.32921   3.33390   3.34661   3.35528
  Beta virt. eigenvalues --    3.36445   3.38093   3.38706   3.39914   3.41279
  Beta virt. eigenvalues --    3.43208   3.44524   3.45218   3.48920   3.50489
  Beta virt. eigenvalues --    3.51803   3.52659   3.54050   3.56172   3.57271
  Beta virt. eigenvalues --    3.57573   3.57823   3.60212   3.63147   3.67862
  Beta virt. eigenvalues --    3.69850   3.71145   3.72339   3.74001   3.74143
  Beta virt. eigenvalues --    3.75276   3.78001   3.79680   3.80035   3.80725
  Beta virt. eigenvalues --    3.83720   3.86737   3.89627   3.90765   3.92816
  Beta virt. eigenvalues --    3.94080   3.94928   3.98386   3.99862   4.02119
  Beta virt. eigenvalues --    4.04497   4.05369   4.06234   4.08687   4.09071
  Beta virt. eigenvalues --    4.11618   4.13957   4.15541   4.18722   4.21171
  Beta virt. eigenvalues --    4.22262   4.24822   4.28303   4.30062   4.32586
  Beta virt. eigenvalues --    4.34022   4.35055   4.37841   4.42880   4.43411
  Beta virt. eigenvalues --    4.46286   4.47946   4.49440   4.51621   4.53514
  Beta virt. eigenvalues --    4.58074   4.60459   4.63652   4.66931   4.68751
  Beta virt. eigenvalues --    4.72212   4.78558   4.81196   4.84931   4.85755
  Beta virt. eigenvalues --    4.91261   4.98371   4.99534   5.05162   5.14115
  Beta virt. eigenvalues --    5.19999   5.25349   5.28922  22.32095  22.47854
  Beta virt. eigenvalues --   22.52000  22.55288  22.62532  22.64518  22.71780
  Beta virt. eigenvalues --   22.73586  22.87138  23.10654
          Condensed to atoms (all electrons):
               1          2          3          4          5          6
     1  C    5.092423   0.243190  -0.023261  -0.029088  -0.005931   0.160190
     2  C    0.243190   5.360863   0.423022  -0.028231  -0.015880  -0.001676
     3  C   -0.023261   0.423022   5.142759   0.179872  -0.006600  -0.037808
     4  C   -0.029088  -0.028231   0.179872   5.385263   0.183181  -0.027234
     5  C   -0.005931  -0.015880  -0.006600   0.183181   5.277486   0.121542
     6  C    0.160190  -0.001676  -0.037808  -0.027234   0.121542   6.396203
     7  C   -0.024828   0.000848  -0.006078  -0.016650  -0.024641  -0.367839
     8  C   -0.008969   0.000092   0.001403  -0.000619   0.007346  -0.024034
     9  C    0.002095   0.000421  -0.002054   0.015154  -0.003523  -0.002831
    10  H   -0.032086   0.410958  -0.050227   0.005835  -0.001355   0.008617
    11  H   -0.001569   0.006538  -0.050328   0.426656  -0.050591   0.017068
    12  H    0.009328  -0.004367   0.016742  -0.082725   0.469787  -0.056374
    13  H   -0.007598  -0.001445  -0.006157  -0.053819   0.440817  -0.061674
    14  H   -0.001160   0.005979  -0.001460   0.007634  -0.012258   0.101080
    15  H    0.006649  -0.000414  -0.000383  -0.001158  -0.000410  -0.032446
    16  H   -0.016321   0.001884   0.000102   0.000434   0.000339   0.026071
    17  H   -0.000416  -0.000084  -0.000052   0.000019  -0.000423   0.017531
    18  H    0.000693  -0.000300   0.001045  -0.004891   0.005340   0.003051
    19  H   -0.000494  -0.000006  -0.000036   0.000169  -0.001532   0.018655
    20  H    0.000480   0.000753  -0.001065  -0.004618   0.001315  -0.024445
    21  H    0.463236  -0.063150   0.009203  -0.002615   0.012755  -0.054995
    22  C    0.007281  -0.087848   0.430019  -0.047735   0.006290  -0.002203
    23  H    0.421110  -0.056786  -0.008556   0.000006  -0.023359  -0.042765
    24  H    0.002488  -0.001101  -0.050893   0.411641  -0.029189  -0.005926
    25  H    0.001044  -0.004562  -0.056324   0.007113  -0.000614   0.000118
    26  H   -0.000640   0.008641  -0.056672  -0.005479   0.000370   0.000395
               7          8          9         10         11         12
     1  C   -0.024828  -0.008969   0.002095  -0.032086  -0.001569   0.009328
     2  C    0.000848   0.000092   0.000421   0.410958   0.006538  -0.004367
     3  C   -0.006078   0.001403  -0.002054  -0.050227  -0.050328   0.016742
     4  C   -0.016650  -0.000619   0.015154   0.005835   0.426656  -0.082725
     5  C   -0.024641   0.007346  -0.003523  -0.001355  -0.050591   0.469787
     6  C   -0.367839  -0.024034  -0.002831   0.008617   0.017068  -0.056374
     7  C    6.193527   0.218566   0.143451   0.000335   0.000793   0.008896
     8  C    0.218566   5.095091  -0.038371  -0.000259  -0.000015  -0.000286
     9  C    0.143451  -0.038371   5.133838  -0.000038  -0.000620  -0.013591
    10  H    0.000335  -0.000259  -0.000038   0.521817  -0.000141   0.000071
    11  H    0.000793  -0.000015  -0.000620  -0.000141   0.536850  -0.003046
    12  H    0.008896  -0.000286  -0.013591   0.000071  -0.003046   0.511746
    13  H    0.012291  -0.000336  -0.000984   0.000067  -0.002021  -0.013473
    14  H    0.213303  -0.018321  -0.012174  -0.000014  -0.000097  -0.002294
    15  H   -0.021354   0.398803  -0.013391   0.000662   0.000034   0.000093
    16  H   -0.075807   0.432069   0.011612  -0.000117  -0.000005  -0.000037
    17  H   -0.052012   0.419664  -0.011491  -0.000004  -0.000000  -0.000010
    18  H   -0.061207   0.008516   0.431013  -0.000005  -0.000141  -0.004004
    19  H   -0.051897  -0.011930   0.422183  -0.000001  -0.000000   0.000214
    20  H   -0.019948  -0.007441   0.379897   0.000057   0.000586   0.001763
    21  H   -0.011379   0.000042   0.000615  -0.006962   0.000032  -0.000215
    22  C   -0.000293   0.000128   0.000099  -0.002048  -0.006241  -0.000082
    23  H    0.017096  -0.001415  -0.000965   0.001933   0.000524  -0.000047
    24  H   -0.001619  -0.000090  -0.001204  -0.000180  -0.025878  -0.001232
    25  H    0.000011  -0.000007  -0.000002   0.003281   0.000146   0.000012
    26  H   -0.000011  -0.000001  -0.000014   0.000116   0.001154  -0.000019
              13         14         15         16         17         18
     1  C   -0.007598  -0.001160   0.006649  -0.016321  -0.000416   0.000693
     2  C   -0.001445   0.005979  -0.000414   0.001884  -0.000084  -0.000300
     3  C   -0.006157  -0.001460  -0.000383   0.000102  -0.000052   0.001045
     4  C   -0.053819   0.007634  -0.001158   0.000434   0.000019  -0.004891
     5  C    0.440817  -0.012258  -0.000410   0.000339  -0.000423   0.005340
     6  C   -0.061674   0.101080  -0.032446   0.026071   0.017531   0.003051
     7  C    0.012291   0.213303  -0.021354  -0.075807  -0.052012  -0.061207
     8  C   -0.000336  -0.018321   0.398803   0.432069   0.419664   0.008516
     9  C   -0.000984  -0.012174  -0.013391   0.011612  -0.011491   0.431013
    10  H    0.000067  -0.000014   0.000662  -0.000117  -0.000004  -0.000005
    11  H   -0.002021  -0.000097   0.000034  -0.000005  -0.000000  -0.000141
    12  H   -0.013473  -0.002294   0.000093  -0.000037  -0.000010  -0.004004
    13  H    0.526551  -0.004327   0.000069  -0.000104   0.000019   0.000238
    14  H   -0.004327   0.501126   0.006857  -0.008119  -0.003377  -0.004960
    15  H    0.000069   0.006857   0.569317  -0.043974  -0.029007  -0.000677
    16  H   -0.000104  -0.008119  -0.043974   0.548373  -0.020467  -0.000150
    17  H    0.000019  -0.003377  -0.029007  -0.020467   0.533406   0.000215
    18  H    0.000238  -0.004960  -0.000677  -0.000150   0.000215   0.546281
    19  H    0.000047  -0.004061  -0.000484   0.000204   0.004310  -0.021058
    20  H    0.000127   0.005554   0.008927  -0.001090  -0.000843  -0.037467
    21  H   -0.000014  -0.001562  -0.002987  -0.000322   0.000440  -0.000041
    22  C    0.000256   0.000043  -0.000069   0.000007  -0.000003   0.000023
    23  H    0.006383  -0.003468   0.000688  -0.000774   0.000037  -0.000038
    24  H    0.006416  -0.000085   0.000374  -0.000069   0.000012  -0.000571
    25  H    0.000019  -0.000001   0.000007   0.000000  -0.000000  -0.000000
    26  H    0.000042  -0.000001   0.000004  -0.000000   0.000000  -0.000001
              19         20         21         22         23         24
     1  C   -0.000494   0.000480   0.463236   0.007281   0.421110   0.002488
     2  C   -0.000006   0.000753  -0.063150  -0.087848  -0.056786  -0.001101
     3  C   -0.000036  -0.001065   0.009203   0.430019  -0.008556  -0.050893
     4  C    0.000169  -0.004618  -0.002615  -0.047735   0.000006   0.411641
     5  C   -0.001532   0.001315   0.012755   0.006290  -0.023359  -0.029189
     6  C    0.018655  -0.024445  -0.054995  -0.002203  -0.042765  -0.005926
     7  C   -0.051897  -0.019948  -0.011379  -0.000293   0.017096  -0.001619
     8  C   -0.011930  -0.007441   0.000042   0.000128  -0.001415  -0.000090
     9  C    0.422183   0.379897   0.000615   0.000099  -0.000965  -0.001204
    10  H   -0.000001   0.000057  -0.006962  -0.002048   0.001933  -0.000180
    11  H   -0.000000   0.000586   0.000032  -0.006241   0.000524  -0.025878
    12  H    0.000214   0.001763  -0.000215  -0.000082  -0.000047  -0.001232
    13  H    0.000047   0.000127  -0.000014   0.000256   0.006383   0.006416
    14  H   -0.004061   0.005554  -0.001562   0.000043  -0.003468  -0.000085
    15  H   -0.000484   0.008927  -0.002987  -0.000069   0.000688   0.000374
    16  H    0.000204  -0.001090  -0.000322   0.000007  -0.000774  -0.000069
    17  H    0.004310  -0.000843   0.000440  -0.000003   0.000037   0.000012
    18  H   -0.021058  -0.037467  -0.000041   0.000023  -0.000038  -0.000571
    19  H    0.531128  -0.031456  -0.000020  -0.000004   0.000020   0.000153
    20  H   -0.031456   0.581424   0.000029  -0.000072   0.000089   0.001139
    21  H   -0.000020   0.000029   0.551928  -0.000211  -0.033988   0.000190
    22  C   -0.000004  -0.000072  -0.000211   5.233003   0.000100  -0.007109
    23  H    0.000020   0.000089  -0.033988   0.000100   0.567236  -0.000032
    24  H    0.000153   0.001139   0.000190  -0.007109  -0.000032   0.542237
    25  H    0.000000   0.000003  -0.000020   0.425621  -0.000011  -0.000064
    26  H    0.000000   0.000020   0.000012   0.425042   0.000033   0.000241
              25         26
     1  C    0.001044  -0.000640
     2  C   -0.004562   0.008641
     3  C   -0.056324  -0.056672
     4  C    0.007113  -0.005479
     5  C   -0.000614   0.000370
     6  C    0.000118   0.000395
     7  C    0.000011  -0.000011
     8  C   -0.000007  -0.000001
     9  C   -0.000002  -0.000014
    10  H    0.003281   0.000116
    11  H    0.000146   0.001154
    12  H    0.000012  -0.000019
    13  H    0.000019   0.000042
    14  H   -0.000001  -0.000001
    15  H    0.000007   0.000004
    16  H    0.000000  -0.000000
    17  H   -0.000000   0.000000
    18  H   -0.000000  -0.000001
    19  H    0.000000   0.000000
    20  H    0.000003   0.000020
    21  H   -0.000020   0.000012
    22  C    0.425621   0.425042
    23  H   -0.000011   0.000033
    24  H   -0.000064   0.000241
    25  H    0.516125  -0.024933
    26  H   -0.024933   0.509960
          Atomic-Atomic Spin Densities.
               1          2          3          4          5          6
     1  C    0.022080   0.036309  -0.016013  -0.005651  -0.004909  -0.060120
     2  C    0.036309  -0.714684  -0.004141   0.019330   0.000118  -0.022506
     3  C   -0.016013  -0.004141   0.319706  -0.027989  -0.007992   0.011723
     4  C   -0.005651   0.019330  -0.027989   0.111303   0.020271  -0.044542
     5  C   -0.004909   0.000118  -0.007992   0.020271  -0.100449  -0.010466
     6  C   -0.060120  -0.022506   0.011723  -0.044542  -0.010466   1.269077
     7  C    0.051046  -0.012089   0.002796  -0.019684   0.041583  -0.708500
     8  C   -0.006217   0.003938  -0.000397   0.001847  -0.002914   0.049404
     9  C   -0.005945   0.002124  -0.000927   0.011380  -0.007824   0.079830
    10  H   -0.002422   0.000193  -0.009277  -0.002545   0.000282   0.003210
    11  H    0.000882  -0.000776  -0.001794  -0.016403   0.002106   0.002822
    12  H   -0.000120  -0.000148   0.000556  -0.010017   0.004064  -0.010329
    13  H    0.009573  -0.003253   0.004759  -0.021786   0.023032  -0.028560
    14  H   -0.009523  -0.000554  -0.000757  -0.001462  -0.006675   0.007811
    15  H    0.003738  -0.003544  -0.000537  -0.001857   0.000418  -0.011696
    16  H   -0.003628   0.001155   0.000054   0.000386  -0.000034   0.023420
    17  H    0.000017   0.000034   0.000020   0.000007   0.000060   0.000805
    18  H   -0.000185   0.000066  -0.000066   0.002614  -0.001196   0.010228
    19  H    0.000108  -0.000023   0.000015   0.000013   0.000151   0.001061
    20  H    0.000863  -0.000550   0.000372  -0.009201   0.001651  -0.006598
    21  H   -0.009446   0.012430  -0.001038   0.001047  -0.004265  -0.003331
    22  C   -0.002399   0.065715  -0.009604   0.006783  -0.000251   0.002099
    23  H    0.024894   0.006025   0.002542  -0.007749   0.017299  -0.044277
    24  H    0.001215  -0.001318  -0.005467  -0.011456   0.002097   0.004415
    25  H    0.000066   0.003512  -0.002958  -0.000464   0.000029   0.000147
    26  H    0.000107  -0.000790  -0.006322   0.000095   0.000052   0.000234
               7          8          9         10         11         12
     1  C    0.051046  -0.006217  -0.005945  -0.002422   0.000882  -0.000120
     2  C   -0.012089   0.003938   0.002124   0.000193  -0.000776  -0.000148
     3  C    0.002796  -0.000397  -0.000927  -0.009277  -0.001794   0.000556
     4  C   -0.019684   0.001847   0.011380  -0.002545  -0.016403  -0.010017
     5  C    0.041583  -0.002914  -0.007824   0.000282   0.002106   0.004064
     6  C   -0.708500   0.049404   0.079830   0.003210   0.002822  -0.010329
     7  C    1.406830  -0.080124  -0.148420   0.000020   0.000643   0.009454
     8  C   -0.080124  -0.036126   0.021694  -0.000084  -0.000026  -0.000189
     9  C   -0.148420   0.021694   0.025396  -0.000089  -0.000480  -0.003507
    10  H    0.000020  -0.000084  -0.000089   0.030623   0.000186   0.000023
    11  H    0.000643  -0.000026  -0.000480   0.000186   0.017650   0.001361
    12  H    0.009454  -0.000189  -0.003507   0.000023   0.001361   0.006260
    13  H    0.006307  -0.000128  -0.000889   0.000168   0.001608   0.003712
    14  H    0.051050  -0.004978  -0.009874   0.000061   0.000057   0.000927
    15  H    0.002959  -0.008333  -0.012247   0.000605   0.000042   0.000118
    16  H   -0.035380   0.012053   0.003719  -0.000166  -0.000007  -0.000051
    17  H   -0.008709   0.005623   0.003586  -0.000002  -0.000000  -0.000006
    18  H   -0.023615   0.000816   0.016647  -0.000004  -0.000158  -0.002086
    19  H   -0.011823   0.003020   0.009007  -0.000000  -0.000004  -0.000030
    20  H    0.007809  -0.007535  -0.030823   0.000058   0.000546   0.001675
    21  H    0.005727  -0.001733  -0.000290   0.000472   0.000036  -0.000037
    22  C    0.000462  -0.000074  -0.000082   0.002887   0.000057  -0.000009
    23  H    0.007148  -0.000442  -0.000350   0.002140   0.000096   0.000531
    24  H    0.001282  -0.000352  -0.001962   0.000205   0.000962   0.001499
    25  H   -0.000007  -0.000001  -0.000002  -0.000703   0.000097   0.000001
    26  H   -0.000008  -0.000001  -0.000008   0.000173   0.000404   0.000012
              13         14         15         16         17         18
     1  C    0.009573  -0.009523   0.003738  -0.003628   0.000017  -0.000185
     2  C   -0.003253  -0.000554  -0.003544   0.001155   0.000034   0.000066
     3  C    0.004759  -0.000757  -0.000537   0.000054   0.000020  -0.000066
     4  C   -0.021786  -0.001462  -0.001857   0.000386   0.000007   0.002614
     5  C    0.023032  -0.006675   0.000418  -0.000034   0.000060  -0.001196
     6  C   -0.028560   0.007811  -0.011696   0.023420   0.000805   0.010228
     7  C    0.006307   0.051050   0.002959  -0.035380  -0.008709  -0.023615
     8  C   -0.000128  -0.004978  -0.008333   0.012053   0.005623   0.000816
     9  C   -0.000889  -0.009874  -0.012247   0.003719   0.003586   0.016647
    10  H    0.000168   0.000061   0.000605  -0.000166  -0.000002  -0.000004
    11  H    0.001608   0.000057   0.000042  -0.000007  -0.000000  -0.000158
    12  H    0.003712   0.000927   0.000118  -0.000051  -0.000006  -0.002086
    13  H    0.008643   0.001578   0.000090  -0.000073  -0.000003  -0.000283
    14  H    0.001578  -0.118420  -0.000190  -0.000707   0.001210  -0.000270
    15  H    0.000090  -0.000190   0.080100  -0.017081  -0.003039  -0.000508
    16  H   -0.000073  -0.000707  -0.017081   0.028581   0.001993   0.000160
    17  H   -0.000003   0.001210  -0.003039   0.001993   0.002847   0.000061
    18  H   -0.000283  -0.000270  -0.000508   0.000160   0.000061   0.017754
    19  H   -0.000014   0.001199  -0.000391   0.000122  -0.000504   0.001603
    20  H    0.000333  -0.000037   0.007857  -0.000976  -0.000414  -0.011986
    21  H    0.000399   0.000206   0.001193  -0.000316  -0.000049  -0.000002
    22  C   -0.000307  -0.000014   0.000043  -0.000003  -0.000000   0.000003
    23  H   -0.000706   0.000649   0.000542  -0.000913  -0.000003  -0.000049
    24  H    0.001026   0.000070   0.000422  -0.000043  -0.000005  -0.000712
    25  H    0.000011   0.000001   0.000007  -0.000001  -0.000000  -0.000000
    26  H    0.000029   0.000001   0.000006  -0.000000  -0.000000  -0.000002
              19         20         21         22         23         24
     1  C    0.000108   0.000863  -0.009446  -0.002399   0.024894   0.001215
     2  C   -0.000023  -0.000550   0.012430   0.065715   0.006025  -0.001318
     3  C    0.000015   0.000372  -0.001038  -0.009604   0.002542  -0.005467
     4  C    0.000013  -0.009201   0.001047   0.006783  -0.007749  -0.011456
     5  C    0.000151   0.001651  -0.004265  -0.000251   0.017299   0.002097
     6  C    0.001061  -0.006598  -0.003331   0.002099  -0.044277   0.004415
     7  C   -0.011823   0.007809   0.005727   0.000462   0.007148   0.001282
     8  C    0.003020  -0.007535  -0.001733  -0.000074  -0.000442  -0.000352
     9  C    0.009007  -0.030823  -0.000290  -0.000082  -0.000350  -0.001962
    10  H   -0.000000   0.000058   0.000472   0.002887   0.002140   0.000205
    11  H   -0.000004   0.000546   0.000036   0.000057   0.000096   0.000962
    12  H   -0.000030   0.001675  -0.000037  -0.000009   0.000531   0.001499
    13  H   -0.000014   0.000333   0.000399  -0.000307  -0.000706   0.001026
    14  H    0.001199  -0.000037   0.000206  -0.000014   0.000649   0.000070
    15  H   -0.000391   0.007857   0.001193   0.000043   0.000542   0.000422
    16  H    0.000122  -0.000976  -0.000316  -0.000003  -0.000913  -0.000043
    17  H   -0.000504  -0.000414  -0.000049  -0.000000  -0.000003  -0.000005
    18  H    0.001603  -0.011986  -0.000002   0.000003  -0.000049  -0.000712
    19  H    0.003258  -0.003704   0.000009   0.000001  -0.000006  -0.000005
    20  H   -0.003704   0.089854   0.000027  -0.000054   0.000113   0.003279
    21  H    0.000009   0.000027  -0.031726  -0.000208   0.015016  -0.000031
    22  C    0.000001  -0.000054  -0.000208  -0.745832  -0.000504   0.000012
    23  H   -0.000006   0.000113   0.015016  -0.000504  -0.049162   0.000237
    24  H   -0.000005   0.003279  -0.000031   0.000012   0.000237   0.014467
    25  H   -0.000000   0.000004   0.000006   0.003636   0.000013   0.000050
    26  H   -0.000000   0.000022   0.000000   0.007573   0.000012   0.000353
              25         26
     1  C    0.000066   0.000107
     2  C    0.003512  -0.000790
     3  C   -0.002958  -0.006322
     4  C   -0.000464   0.000095
     5  C    0.000029   0.000052
     6  C    0.000147   0.000234
     7  C   -0.000007  -0.000008
     8  C   -0.000001  -0.000001
     9  C   -0.000002  -0.000008
    10  H   -0.000703   0.000173
    11  H    0.000097   0.000404
    12  H    0.000001   0.000012
    13  H    0.000011   0.000029
    14  H    0.000001   0.000001
    15  H    0.000007   0.000006
    16  H   -0.000001  -0.000000
    17  H   -0.000000  -0.000000
    18  H   -0.000000  -0.000002
    19  H   -0.000000  -0.000000
    20  H    0.000004   0.000022
    21  H    0.000006   0.000000
    22  C    0.003636   0.007573
    23  H    0.000013   0.000012
    24  H    0.000050   0.000353
    25  H    0.025374   0.000154
    26  H    0.000154   0.027184
 Mulliken charges and spin densities:
               1          2
     1  C   -0.257847   0.024321
     2  C   -0.197338  -0.613424
     3  C    0.153787   0.247263
     4  C   -0.318115  -0.005731
     5  C   -0.350262  -0.033762
     6  C   -0.128269   0.515362
     7  C   -0.073552   0.546757
     8  C   -0.469628  -0.051260
     9  C   -0.439126  -0.050336
    10  H    0.139688   0.026013
    11  H    0.150314   0.009908
    12  H    0.163150   0.003664
    13  H    0.158609   0.005269
    14  H    0.236162  -0.088641
    15  H    0.154271   0.038718
    16  H    0.146261   0.012264
    17  H    0.142536   0.003529
    18  H    0.139094   0.008828
    19  H    0.145900   0.003064
    20  H    0.146281   0.042585
    21  H    0.140000  -0.015907
    22  C   -0.373996  -0.670069
    23  H    0.156951  -0.026905
    24  H    0.160351   0.010239
    25  H    0.133039   0.028971
    26  H    0.141740   0.029282
 Sum of Mulliken charges =  -0.00000  -0.00000
 Mulliken charges and spin densities with hydrogens summed into heavy atoms:
               1          2
     1  C    0.039105  -0.018492
     2  C   -0.057650  -0.587411
     3  C    0.153787   0.247263
     4  C   -0.007450   0.014416
     5  C   -0.028503  -0.024830
     6  C   -0.128269   0.515362
     7  C    0.162610   0.458116
     8  C   -0.026560   0.003251
     9  C   -0.007852   0.004141
    22  C   -0.099217  -0.611817
 APT charges:
               1
     1  C   -1.033528
     2  C   -0.501207
     3  C    0.072494
     4  C   -0.848246
     5  C   -1.047274
     6  C    0.130058
     7  C    0.026076
     8  C   -1.403744
     9  C   -1.333631
    10  H    0.544550
    11  H    0.542207
    12  H    0.441012
    13  H    0.424486
    14  H    0.389185
    15  H    0.220966
    16  H    0.384655
    17  H    0.621998
    18  H    0.339725
    19  H    0.632606
    20  H    0.225736
    21  H    0.408828
    22  C   -1.121091
    23  H    0.464750
    24  H    0.296334
    25  H    0.571516
    26  H    0.551542
 Sum of APT charges =  -0.00000
 APT charges with hydrogens summed into heavy atoms:
               1
     1  C   -0.159950
     2  C    0.043342
     3  C    0.072494
     4  C   -0.009705
     5  C   -0.181776
     6  C    0.130058
     7  C    0.415261
     8  C   -0.176126
     9  C   -0.135564
    22  C    0.001966
 Electronic spatial extent (au):  <R**2>=           1675.8816
 Charge=              0.0000 electrons
 Dipole moment (field-independent basis, Debye):
    X=              0.5960    Y=             -0.0736    Z=              0.2116  Tot=              0.6367
 Quadrupole moment (field-independent basis, Debye-Ang):
   XX=            -65.8427   YY=            -61.6338   ZZ=            -66.1288
   XY=              0.2495   XZ=              0.2140   YZ=             -0.0316
 Traceless Quadrupole moment (field-independent basis, Debye-Ang):
   XX=             -1.3076   YY=              2.9012   ZZ=             -1.5937
   XY=              0.2495   XZ=              0.2140   YZ=             -0.0316
 Octapole moment (field-independent basis, Debye-Ang**2):
  XXX=              6.5431  YYY=              1.9926  ZZZ=              3.3642  XYY=             -3.3294
  XXY=             -0.9817  XXZ=             -7.6980  XZZ=              1.3171  YZZ=             -0.9465
  YYZ=              0.8152  XYZ=              0.9877
 Hexadecapole moment (field-independent basis, Debye-Ang**3):
 XXXX=          -1497.7628 YYYY=           -559.0363 ZZZZ=           -344.2285 XXXY=              1.3934
 XXXZ=             10.5515 YYYX=             -1.9872 YYYZ=             -3.4004 ZZZX=            -10.4388
 ZZZY=              1.9612 XXYY=           -329.4110 XXZZ=           -306.6233 YYZZ=           -151.2943
 XXYZ=             -2.8668 YYXZ=              7.1031 ZZXY=              0.4957
 N-N= 5.348058243581D+02 E-N=-1.973310260404D+03  KE= 3.882053629152D+02
  Exact polarizability:       0.000       0.000       0.000       0.000       0.000       0.000
 Approx polarizability:     160.530       7.753     141.739       8.179       6.810     136.147
                          Isotropic Fermi Contact Couplings
        Atom                 a.u.       MegaHertz       Gauss      10(-4) cm-1
     1  C(13)              0.01996      11.22001       4.00358       3.74259
     2  C(13)             -0.05157     -28.98819     -10.34371      -9.66942
     3  C(13)              0.05738      32.25089      11.50792      10.75774
     4  C(13)              0.02844      15.98327       5.70323       5.33144
     5  C(13)             -0.00637      -3.58175      -1.27806      -1.19474
     6  C(13)              0.11160      62.72762      22.38278      20.92368
     7  C(13)              0.11799      66.32082      23.66492      22.12224
     8  C(13)             -0.00891      -5.00869      -1.78723      -1.67072
     9  C(13)              0.00213       1.19763       0.42734       0.39949
    10  H(1)               0.01100      24.59016       8.77438       8.20240
    11  H(1)               0.00305       6.82079       2.43383       2.27517
    12  H(1)               0.00161       3.60124       1.28501       1.20125
    13  H(1)               0.00227       5.07901       1.81232       1.69418
    14  H(1)              -0.02874     -64.23241     -22.91972     -21.42563
    15  H(1)               0.01347      30.11360      10.74528      10.04482
    16  H(1)               0.00467      10.43016       3.72174       3.47913
    17  H(1)               0.00079       1.76943       0.63138       0.59022
    18  H(1)               0.00418       9.33286       3.33020       3.11311
    19  H(1)               0.00100       2.23432       0.79726       0.74529
    20  H(1)               0.01497      33.44988      11.93575      11.15768
    21  H(1)              -0.00758     -16.94980      -6.04811      -5.65384
    22  C(13)             -0.08342     -46.88727     -16.73054     -15.63991
    23  H(1)              -0.01139     -25.45916      -9.08446      -8.49226
    24  H(1)               0.00330       7.36744       2.62889       2.45751
    25  H(1)               0.00993      22.20316       7.92264       7.40618
    26  H(1)               0.01051      23.48902       8.38147       7.83509
 --------------------------------------------------------
       Center         ----  Spin Dipole Couplings  ----
                      3XX-RR        3YY-RR        3ZZ-RR
 --------------------------------------------------------
     1   Atom       -0.001514      0.016161     -0.014647
     2   Atom        0.056997      0.310812     -0.367809
     3   Atom       -0.017397     -0.091291      0.108688
     4   Atom        0.017291     -0.025174      0.007883
     5   Atom        0.003789      0.002515     -0.006303
     6   Atom        0.000676     -0.292202      0.291526
     7   Atom       -0.021536     -0.304942      0.326479
     8   Atom       -0.008480      0.010598     -0.002118
     9   Atom       -0.010806      0.013356     -0.002550
    10   Atom        0.013825     -0.020817      0.006992
    11   Atom        0.004648     -0.003426     -0.001222
    12   Atom       -0.004419      0.008418     -0.003999
    13   Atom        0.004937     -0.003618     -0.001318
    14   Atom        0.055525     -0.082359      0.026833
    15   Atom       -0.008150      0.004104      0.004046
    16   Atom       -0.006692      0.011498     -0.004807
    17   Atom        0.000576     -0.001406      0.000830
    18   Atom       -0.006436      0.012485     -0.006048
    19   Atom        0.000302      0.000753     -0.001055
    20   Atom       -0.005926      0.002770      0.003156
    21   Atom       -0.010513      0.011698     -0.001185
    22   Atom        0.084512      0.332058     -0.416570
    23   Atom        0.000088      0.008703     -0.008791
    24   Atom       -0.001192     -0.004128      0.005320
    25   Atom        0.013840     -0.021021      0.007181
    26   Atom        0.020675     -0.028389      0.007713
 --------------------------------------------------------
                        XY            XZ            YZ
 --------------------------------------------------------
     1   Atom       -0.018771      0.007005     -0.003554
     2   Atom       -0.001569      0.470129      0.010753
     3   Atom       -0.009047     -0.126493     -0.009892
     4   Atom        0.008293      0.025751      0.005115
     5   Atom        0.015762     -0.003317      0.002062
     6   Atom        0.051729      0.418940      0.063436
     7   Atom        0.001845      0.426396     -0.000571
     8   Atom        0.005687     -0.006269     -0.011678
     9   Atom       -0.004084     -0.005383      0.014354
    10   Atom        0.026958      0.006018      0.017452
    11   Atom        0.007715     -0.001892      0.002798
    12   Atom        0.006783     -0.002455     -0.002443
    13   Atom        0.008453     -0.008918     -0.002097
    14   Atom       -0.015219     -0.050337      0.015209
    15   Atom        0.000629      0.000675     -0.007905
    16   Atom        0.004901     -0.001300     -0.003909
    17   Atom        0.007008     -0.006306     -0.005703
    18   Atom       -0.001477     -0.000469      0.001676
    19   Atom       -0.007400     -0.005281      0.006201
    20   Atom        0.000909      0.000622      0.007621
    21   Atom       -0.010835     -0.003933     -0.004267
    22   Atom       -0.002286      0.449415     -0.004157
    23   Atom       -0.009449     -0.012681      0.003777
    24   Atom        0.006955      0.000676      0.004354
    25   Atom        0.033889      0.004487      0.020819
    26   Atom       -0.034485      0.010997     -0.021183
 --------------------------------------------------------


 ---------------------------------------------------------------------------------
              Anisotropic Spin Dipole Couplings in Principal Axis System
 ---------------------------------------------------------------------------------

       Atom             a.u.   MegaHertz   Gauss  10(-4) cm-1        Axes

              Baa    -0.0187    -2.507    -0.895    -0.836 -0.5699 -0.2264  0.7899
     1 C(13)  Bbb    -0.0104    -1.401    -0.500    -0.467  0.6180  0.5154  0.5936
              Bcc     0.0291     3.908     1.394     1.304 -0.5416  0.8265 -0.1538
 
              Baa    -0.6714   -90.094   -32.148   -30.052 -0.5423 -0.0101  0.8401
     2 C(13)  Bbb     0.3105    41.667    14.868    13.898 -0.0810  0.9959 -0.0404
              Bcc     0.3609    48.427    17.280    16.154  0.8363  0.0899  0.5409
 
              Baa    -0.1066   -14.304    -5.104    -4.771  0.6451  0.6456  0.4087
     3 C(13)  Bbb    -0.0804   -10.793    -3.851    -3.600 -0.5545  0.7635 -0.3309
              Bcc     0.1870    25.097     8.955     8.371 -0.5257 -0.0131  0.8506
 
              Baa    -0.0267    -3.588    -1.280    -1.197 -0.1775  0.9840 -0.0133
     4 C(13)  Bbb    -0.0134    -1.805    -0.644    -0.602 -0.6225 -0.1018  0.7759
              Bcc     0.0402     5.393     1.924     1.799  0.7622  0.1461  0.6307
 
              Baa    -0.0144    -1.932    -0.689    -0.644 -0.6359  0.6444 -0.4247
     5 C(13)  Bbb    -0.0046    -0.613    -0.219    -0.204 -0.2675  0.3321  0.9045
[...]
 02027535,0.06012110,-0.00000695,0.00003054,-0.00004038,-0.00009103,0.0
 0005271,0.00009636,0.00002851,0.00004662,-0.00011155,-0.00001403,-0.00
 000193,0.00006052,0.00063997,-0.00001578,0.00020354,-0.00019376,-0.000
 05036,-0.00008371,0.00042166,-0.00012891,-0.00016577,0.00036872,0.0005
 6697,-0.00026450,-0.00643159,0.00033246,0.00092728,0.32369989,0.000713
 02,0.00009146,-0.00151027,-0.00027232,-0.00005314,-0.00023352,0.000112
 65,-0.00003521,0.00014749,-0.00000575,-0.00002769,-0.00008293,-0.00036
 016,-0.00041582,0.00046060,-0.00038612,-0.00517846,0.00098118,0.028617
 05,-0.00430014,-0.00974108,0.00149939,0.00146527,-0.00086011,0.0191390
 8,-0.04753516,-0.00275117,0.00003011,0.00001858,0.00006432,-0.00003156
 ,0.00006181,0.00010072,-0.00011698,0.00030871,-0.00024522,-0.00004208,
 0.00024534,-0.00005420,-0.00044139,0.00071620,-0.00024730,-0.00018632,
 0.00003538,0.00010201,-0.00007197,0.00033802,-0.00000847,-0.00072436,-
 0.00041024,0.00048244,-0.02485834,0.00272506,0.00425242,-0.02283511,0.
 05287852,0.00043618,0.00010273,-0.00089538,-0.00016274,-0.00009242,-0.
 00014681,0.00011228,-0.00003564,0.00009711,-0.00020146,-0.00028924,-0.
 00036082,-0.00020051,-0.00026470,-0.00023193,0.00201632,-0.00323857,0.
 00087305,0.01593462,-0.00270824,-0.00844871,-0.00050783,0.00091646,-0.
 00006481,0.05918598,-0.00285872,-0.05844772,0.00003387,0.00000640,0.00
 004649,-0.00003939,0.00006931,0.00013663,0.00002677,-0.00021147,0.0002
 0432,0.00015689,-0.00009053,0.00004655,-0.00033812,0.00074417,0.000980
 00,-0.00008065,0.00004594,0.00008369,-0.00011413,0.00012837,-0.0000746
 9,-0.00020380,-0.00003928,0.00044602,0.01742290,-0.00232187,-0.0045691
 2,-0.06639107,0.00825414,0.06360066,0.00020189,0.00014910,0.00017604,0
 .00014963,-0.00010554,-0.00008609,-0.00001590,0.00001771,-0.00004285,-
 0.00031082,-0.00008272,-0.00002736,0.00029605,-0.00021679,0.00030989,0
 .00127922,-0.00093182,-0.00205988,0.00528431,-0.00256841,0.00517267,0.
 00060367,-0.00029704,0.00037011,-0.11406324,-0.00130838,-0.10859818,0.
 00008517,0.00001150,-0.00002927,-0.00013777,-0.00001038,0.00008685,0.0
 0000749,0.00003836,-0.00003905,-0.00007269,0.00003706,-0.00000942,-0.0
 0070778,0.00103386,0.00145370,-0.00036639,-0.00040317,-0.00021256,-0.0
 0005181,-0.00010713,0.00005913,-0.00032476,0.00009436,-0.00013216,0.00
 418930,0.00087145,0.00778837,-0.01672582,-0.00019186,-0.02723678,0.121
 51575,0.00050514,0.00067905,0.00040481,-0.00021197,-0.00060835,-0.0000
 5116,0.00024969,0.00016127,0.00018833,0.00019189,0.00034588,-0.0003537
 6,0.00033807,-0.00068950,0.00081078,0.00340657,0.00079225,-0.00025205,
 -0.01676327,-0.00598873,-0.02984981,0.00034097,0.00203198,0.00015429,-
 0.00604817,-0.04383350,-0.00758217,0.00009534,-0.00002267,0.00018762,0
 .00022975,0.00005008,0.00009925,-0.00010148,0.00035089,-0.00012951,-0.
 00003999,0.00012326,-0.00005518,-0.00223271,-0.00172078,0.00207810,0.0
 0054451,-0.00044751,0.00080055,0.00027966,0.00021852,0.00035457,-0.000
 14836,-0.00011460,0.00007525,0.01458806,0.00100009,0.02099465,0.000756
 30,-0.00067545,0.00192435,0.00426825,0.04824187,0.00049512,0.00056462,
 0.00024717,-0.00027240,-0.00045021,-0.00036780,0.00037448,-0.00010864,
 0.00047563,0.00014827,-0.00020861,-0.00099137,0.00045282,-0.00004362,0
 .00016727,0.00263841,0.00037404,-0.00135479,-0.00793069,-0.00877463,-0
 .01754210,0.00101163,0.00057415,0.00082762,-0.11155529,-0.00062193,-0.
 22139629,0.00014072,0.00004462,0.00015476,0.00000324,0.00017776,0.0004
 2494,0.00014033,-0.00024546,-0.00004495,0.00019003,0.00004575,0.000063
 14,-0.00204903,-0.00071403,0.00338060,-0.00027619,-0.00115121,0.000427
 72,0.00015382,-0.00020144,0.00004241,-0.00009950,-0.00016146,0.0000245
 3,-0.01013295,-0.00061614,-0.01547963,0.00363037,0.00071301,0.00656401
 ,0.12246057,0.01032326,0.24415195,-0.11977105,-0.10964964,0.04862495,-
 0.01436089,-0.02213994,0.00628035,-0.00377134,0.00158033,-0.00213004,-
 0.00022162,0.00017381,0.00008139,-0.00210897,0.00325929,0.00035863,0.0
 1180750,0.01327915,-0.00747070,0.00043925,-0.00066173,-0.00003487,-0.0
 0232587,0.00084802,0.00146242,0.00011300,-0.00002121,0.00014215,0.0011
 4631,0.00045402,-0.00021077,0.00005368,-0.00000604,0.00006121,0.000655
 53,0.00099347,-0.00017364,-0.00006304,-0.00005088,-0.00000506,0.000027
 52,-0.00012649,-0.00042629,-0.00018180,-0.00031057,-0.00015565,-0.0025
 7510,0.00054171,0.00147057,-0.00005241,0.00029636,-0.00020091,0.000019
 45,-0.00009121,-0.00003983,0.00002645,-0.00000269,-0.00002227,-0.00001
 006,0.00003579,0.00003483,0.13564924,-0.10584432,-0.21148749,0.0701653
 5,-0.00371902,-0.00385855,-0.00172634,0.00039541,0.00192039,0.00139696
 ,0.00042104,0.00039639,0.00046992,0.00427186,-0.00382227,-0.00020513,-
 0.01415311,-0.01931222,0.00858488,-0.00094396,-0.00018413,0.00030036,-
 0.00112401,-0.00015574,-0.00011924,-0.00007591,0.00019945,-0.00022927,
 0.00027325,0.00079482,-0.00065379,-0.00004743,-0.00000487,-0.00004101,
 -0.00109239,-0.00126989,0.00013938,0.00011084,0.00033151,-0.00003947,-
 0.00050428,0.00011617,0.00056115,0.00016907,0.00004525,-0.00055167,0.0
 0030746,0.00107696,0.00058603,-0.00015837,0.00061781,0.00015220,-0.000
 04199,0.00013727,0.00006266,0.00009507,0.00000482,-0.00002181,-0.00001
 637,-0.00012124,-0.00005360,0.11943493,0.22971130,0.04818062,0.0717803
 1,-0.07217675,-0.01278478,-0.01885093,0.00468543,-0.00170179,0.0008941
 0,-0.00142492,-0.00013999,0.00051994,0.00020989,0.00011376,0.00013656,
 0.00029844,-0.00182529,-0.00022835,-0.00232077,0.00004679,0.00003975,0
 .00051027,0.00173662,-0.00064132,0.00000252,0.00001752,0.00000892,-0.0
 0002668,0.00087224,0.00036589,0.00060901,0.00003434,-0.00000777,0.0000
 5733,-0.00002224,0.00010613,0.00036864,-0.00036025,-0.00015771,0.00042
 484,0.00036696,0.00016700,-0.00027653,0.00009883,0.00000933,-0.0006447
 2,0.00066544,-0.00038059,-0.00013352,-0.00015418,-0.00023524,-0.000159
 15,0.00000531,0.00002646,-0.00000260,-0.00003448,-0.00000943,0.0000342
 4,-0.00002275,0.00001133,0.00002470,-0.05108131,-0.07655682,0.08162238
 ,0.00806958,-0.00109847,-0.00184973,-0.05095989,-0.08103658,-0.0345320
 1,-0.20035800,0.05928920,-0.10502132,-0.01506864,0.00807783,-0.0123104
 4,-0.00054896,0.00141632,-0.00116863,0.00043255,0.00154971,0.00358027,
 -0.00025631,0.00005470,-0.00075816,-0.00030185,0.00042705,-0.00054555,
 -0.00021403,0.00004789,0.00003699,-0.00231704,0.00216169,0.00238594,-0
 .00041574,-0.00172622,0.00064809,-0.00000818,-0.00012307,-0.00049669,-
 0.00060362,-0.00007670,-0.00090582,-0.00062234,-0.00003687,0.00056959,
 0.00044228,0.00000653,0.00013337,0.00016364,-0.00009078,0.00000767,0.0
 0007983,0.00001374,0.00001953,0.00011030,-0.00004238,-0.00001854,-0.00
 000192,-0.00004995,-0.00000772,-0.00001286,-0.00010632,-0.00014198,0.0
 0061989,-0.00083247,-0.00024078,0.45906036,-0.00062541,-0.00440356,-0.
 00018766,-0.03615923,-0.01048160,-0.02391871,-0.00674400,-0.09862208,-
 0.00354616,0.02606102,0.00080929,0.01773308,0.00177732,-0.00565048,0.0
 0070596,0.00001952,-0.00118911,-0.00055890,-0.00026835,0.00022490,0.00
 022026,0.00001939,-0.00010165,0.00004897,0.00002343,-0.00013278,0.0000
 7422,-0.00168592,0.00092073,-0.00143018,0.00141732,0.00073494,0.001279
 88,0.00132745,0.00031200,0.00141154,-0.00010784,0.00009177,0.00019845,
 0.00025261,0.00012713,-0.00013940,-0.00000108,-0.00002020,-0.00004434,
 0.00005751,0.00008845,0.00005456,-0.00001416,0.00006738,0.00000800,-0.
 00009533,0.00014572,-0.00001349,0.00005697,0.00009101,0.00000866,-0.00
 006493,0.00004952,0.00010673,-0.00107672,-0.00019553,-0.00083524,0.005
 27491,0.66271973,0.00216430,-0.00112039,0.00425191,-0.04154286,-0.0566
 3089,-0.01432927,-0.10029044,0.04316173,-0.11903066,-0.01200151,0.0059
 0294,-0.00433706,-0.00118546,0.00126193,-0.00020794,0.00018178,0.00107
 623,0.00217773,-0.00033326,-0.00004710,-0.00058925,-0.00031050,0.00039
 355,-0.00051935,-0.00022035,-0.00005802,-0.00017274,0.00085887,0.00135
 583,-0.00190252,-0.00080031,-0.00224457,0.00115454,-0.00020661,-0.0000
 6755,-0.00037199,-0.00004084,-0.00001645,-0.00030055,-0.00041610,-0.00
 000568,0.00035409,0.00042495,-0.00004940,0.00016888,0.00013315,-0.0000
 3203,0.00005845,0.00005605,0.00000613,0.00004133,0.00010459,-0.0000475
 7,0.00002434,0.00000332,-0.00003885,0.00001931,0.00004142,-0.00005151,
 0.00000573,-0.00034655,-0.00059468,-0.00081734,0.25708924,-0.00721610,
 0.25093743,-0.05850473,0.01131620,0.06051556,0.00467234,-0.00827508,-0
 .02676378,-0.00041119,0.00192947,0.00017534,0.00033096,-0.00010872,-0.
 00098444,-0.00000345,-0.00087543,-0.00051510,-0.01069366,0.00606720,0.
 01824792,0.00084737,0.00383758,0.00102323,-0.00025729,0.00059245,-0.00
 024869,-0.00129465,-0.00011670,0.00025075,-0.00086154,0.00066649,0.001
 18552,0.00002441,-0.00005209,0.00002701,-0.00003552,-0.00009832,-0.000
 06210,0.00039563,0.00008832,-0.00009223,0.00024097,-0.00050972,-0.0002
 3461,0.00012386,-0.00001474,-0.00017286,0.00023240,-0.00000087,0.00010
 279,-0.00005424,0.00011799,0.00007828,0.00003988,0.00003999,-0.0000649
 5,-0.00005659,0.00037769,0.00023791,0.00004274,-0.00005561,0.00004691,
 -0.00487863,0.00317858,0.01641935,-0.00171030,-0.00059909,0.00026860,0
 .07192742,0.01341808,-0.05405340,-0.04502490,-0.00207691,-0.00063449,-
 0.00665083,-0.00120736,0.00015242,-0.00042026,-0.00012810,-0.00022085,
 -0.00020872,0.00110460,0.00139866,-0.00126021,0.01356075,-0.00814415,-
 0.02395921,-0.00131968,-0.00483146,-0.00029966,-0.00039734,-0.00019439
 ,0.00059022,0.00133634,0.00020307,-0.00053964,0.00018383,-0.00016700,-
 0.00057927,-0.00004299,-0.00000465,0.00000116,0.00005292,0.00031959,0.
 00022711,-0.00060828,-0.00023334,0.00067017,-0.00010153,0.00092365,0.0
 0063390,-0.00021558,0.00002169,-0.00025879,0.00019612,0.00010388,0.000
 14350,-0.00002625,0.00025366,-0.00005344,0.00001340,-0.00000083,0.0000
 4484,0.00011848,-0.00039355,-0.00025721,-0.00001722,-0.00001739,-0.000
 07134,-0.00673615,0.00502222,0.02384368,0.00012246,-0.00014554,0.00042
 989,-0.01723991,0.06072375,0.07014011,-0.04610675,-0.26280825,-0.00442
 272,-0.00729809,-0.01895895,0.00243790,0.00390746,0.00126460,0.0001618
 3,0.00019828,-0.00048588,-0.00058600,-0.00009723,0.00008341,0.00351210
 ,-0.00049434,0.00433636,-0.00116511,0.00009962,-0.00081888,-0.00001301
 ,-0.00009194,-0.00019367,-0.00007310,0.00017001,-0.00008453,-0.0009868
 3,-0.00005490,-0.00018764,-0.00004382,-0.00003686,-0.00004101,-0.00009
 190,0.00002340,0.00031873,-0.00016283,-0.00060497,0.00001660,-0.000676
 49,0.00007567,0.00079998,0.00012585,0.00004068,0.00010719,-0.00005983,
 -0.00003051,-0.00000926,0.00002718,-0.00007173,-0.00002213,-0.00003075
 ,-0.00005769,0.00003102,-0.00001702,-0.00002304,0.00001596,0.00003550,
 -0.00007877,-0.00001927,0.00396062,-0.00142888,-0.01079032,-0.00269710
 ,-0.00082167,-0.00117998,-0.06936469,0.05291534,0.28851012,-0.00003040
 ,-0.00014112,0.00003564,-0.00163946,-0.00151673,-0.00104962,-0.0051493
 8,0.00821931,0.01075021,-0.10182606,0.04739116,0.09797936,0.00944693,-
 0.00947277,-0.02003486,0.00166145,0.00100526,0.00039789,-0.00011951,-0
 .00010029,0.00014457,-0.00004669,0.00008997,0.00004555,-0.00119389,-0.
 00040336,0.00020100,0.00028734,0.00018501,-0.00033969,-0.01054931,0.00
 941749,0.01814157,0.00115687,0.00022394,0.00083802,-0.00254479,-0.0011
 5879,-0.00387536,0.00017089,0.00017957,0.00007708,0.00001248,0.0000005
 7,0.00000328,0.00000831,0.00002793,-0.00001096,-0.00000770,-0.00000998
 ,-0.00000286,-0.00011455,0.00026032,-0.00026476,-0.00002155,0.00007817
 ,-0.00008381,-0.00087230,-0.00013086,0.00047866,0.00004565,-0.00008238
 ,0.00005789,-0.00029279,0.00119473,-0.00150376,0.00000289,0.00000373,0
 .00013659,0.11199389,0.00053929,-0.00027534,-0.00076682,0.00129464,-0.
 00249521,0.00137940,0.01692965,-0.01409972,-0.02019976,0.04751494,-0.0
 8762544,-0.08512367,0.00162184,-0.00185135,-0.00324814,0.00084370,-0.0
 0005331,-0.00034723,-0.00061243,-0.00014010,-0.00006653,-0.00004055,0.
 00001285,0.00000342,0.00010889,0.00001334,-0.00046895,-0.00106082,-0.0
 0055078,0.00116900,-0.00928784,0.00903067,0.01708848,-0.00010010,0.000
 53190,0.00051167,-0.00039196,0.00071590,-0.00024629,0.00016078,0.00002
 751,0.00014175,-0.00000574,-0.00008422,0.00001875,0.00003496,0.0000255
 6,0.00004020,0.00000335,0.00000653,0.00000057,0.00003265,-0.00004303,0
 .00009510,0.00021339,0.00003544,0.00022117,-0.00019949,0.00020104,0.00
 047514,-0.00003320,0.00003802,-0.00001485,-0.00249112,-0.00026215,-0.0
 0110083,-0.00022027,-0.00006378,-0.00008653,-0.05487969,0.09668797,-0.
 00038646,0.00007484,0.00034603,-0.00092591,-0.00101384,-0.00066591,-0.
 00301924,0.00566860,0.01051059,0.09523310,-0.08304762,-0.20800847,0.00
 968356,-0.00878907,-0.02224680,0.00110350,0.00117862,0.00078743,-0.000
 72725,-0.00082099,-0.00020045,-0.00005868,0.00014344,0.00017094,0.0006
 8671,-0.00008673,0.00012338,0.00039652,0.00009375,-0.00060565,0.004509
 26,-0.00354489,-0.00796891,0.00042732,0.00034430,0.00080888,-0.0041058
 4,-0.00092270,-0.00243645,0.00012717,0.00010401,0.00015578,-0.00002515
 ,-0.00004089,0.00002269,0.00000768,0.00004077,-0.00002469,-0.00003826,
 -0.00005187,0.00003721,-0.00050785,0.00013977,-0.00036071,0.00024139,0
 .00025116,0.00009549,0.00054293,0.00001405,0.00024968,0.00004344,-0.00
 007923,0.00005149,-0.00189577,0.00060707,-0.00060834,0.00007911,0.0001
 1266,0.00013391,-0.10175222,0.09004184,0.22989600,0.00003203,-0.000254
 34,-0.00003704,-0.00012410,0.00163413,0.00238053,-0.00783977,0.0227019
 6,-0.00731335,-0.00137037,-0.00295777,-0.00518324,-0.00027600,0.001904
 26,-0.00018853,0.00028791,-0.00002125,0.00026024,0.00006963,-0.0000211
 1,-0.00009000,-0.00004073,0.00005484,-0.00004198,-0.00002105,0.0000112
 5,-0.00000697,-0.00002132,-0.00099209,0.00000279,0.00036320,0.00035222
 ,-0.00002564,-0.00040364,-0.00012995,-0.00040725,-0.00000418,-0.000009
 08,-0.00003835,-0.00003324,-0.00004202,0.00002053,0.00001724,-0.000015
 95,0.00002518,0.00000474,-0.00000974,-0.00000330,-0.00000485,-0.000012
 35,0.00001370,0.00002645,-0.00003652,0.00000367,-0.00001576,-0.0000073
 6,0.00000990,0.00000957,0.00000432,0.00001140,-0.00004216,-0.00004058,
 -0.00001618,-0.10595458,0.10727603,-0.05802492,-0.00002228,0.00002601,
 0.00003098,0.00021170,-0.00046825,0.00020103,0.10744625,0.00033210,0.0
 0012246,0.00003392,-0.00217679,-0.00065582,-0.00133057,0.00018204,0.00
 493379,0.00006077,-0.00031629,0.00108153,0.00036696,-0.00024452,-0.000
 13777,-0.00037451,-0.00000779,0.00018489,0.00007578,0.00005492,-0.0000
 1964,0.00002782,-0.00000442,-0.00002942,0.00000080,-0.00001038,0.00001
 111,-0.00002345,0.00015113,0.00029002,0.00013076,-0.00008570,0.0002562
 1,-0.00026940,0.00003698,0.00001695,0.00005242,0.00000990,0.00001298,0
 .00003367,-0.00000624,0.00003870,-0.00000373,0.00000222,0.00002055,-0.
 00001548,-0.00000201,0.00000675,0.00000423,0.00000900,0.00000166,-0.00
 000925,-0.00001618,0.00001516,-0.00001290,0.00001792,0.00000510,-0.000
 00074,-0.00001009,-0.00002352,-0.00000227,0.00002463,0.00000553,0.0000
 2119,0.10909204,-0.25728359,0.07851445,-0.00002665,0.00001271,-0.00005
 376,-0.00016812,-0.00003272,-0.00014024,-0.11895850,0.26537188,0.00025
 058,-0.00036536,0.00011350,0.00192748,0.00082873,-0.00219079,-0.006767
 66,0.01514741,-0.00194934,-0.00389779,-0.00112635,0.00307542,-0.000577
 88,0.00016132,0.00016697,0.00010912,0.00039233,-0.00000890,-0.00000315
 ,-0.00002991,0.00000429,0.00001383,-0.00001285,0.00001406,0.00000700,0
 .00000547,0.00000168,-0.00008124,-0.00060584,-0.00008598,-0.00009706,-
 0.00052228,-0.00011291,-0.00007054,-0.00002432,-0.00018025,0.00002442,
 -0.00002552,-0.00001912,-0.00002716,-0.00001069,0.00001546,-0.00000506
 ,0.00000371,-0.00000003,-0.00000811,-0.00000356,-0.00000491,-0.0000024
 8,-0.00000160,0.00000029,0.00001802,-0.00000643,-0.00001328,-0.0000117
 1,-0.00001092,-0.00000283,0.00000600,-0.00000311,-0.00002621,-0.000035
 75,0.00001313,-0.00001106,-0.05821433,0.07745131,-0.06455529,-0.000040
 55,0.00002017,-0.00005231,-0.00054062,0.00083446,-0.00003220,0.0648971
 1,-0.08558941,0.06074259,0.00017318,-0.00139356,0.00018583,-0.00272222
 ,0.00086785,-0.00500548,-0.00384994,-0.02342372,-0.00532831,0.00025077
 ,-0.00074469,0.00247530,-0.00006924,-0.00004249,0.00008573,0.00021574,
 0.00010994,0.00002551,0.00001105,-0.00000030,0.00003372,-0.00001495,-0
 .00001943,0.00001450,-0.00002986,-0.00003664,-0.00005217,0.00002222,-0
 .00017416,0.00002570,-0.00012857,0.00014627,-0.00047851,0.00003443,0.0
 0002762,0.00000267,0.00006291,-0.00000694,0.00009366,0.00006085,0.0000
 4162,-0.00004952,0.00000607,-0.00001181,-0.00000641,0.00001152,0.00002
 664,0.00002471,-0.00001401,0.00001029,0.00000395,-0.00000725,0.0000159
 7,-0.00001016,0.00000549,0.00001716,0.00001668,0.00000740,0.00000443,0
 .00004643,-0.00024056,0.00001906,-0.00023165,-0.08933137,-0.09731616,-
 0.04410280,-0.00009681,-0.00001941,-0.00017746,-0.00059002,0.00049339,
 0.00015990,0.00770528,0.01212079,0.00312753,0.08852789,0.00031342,0.00
 009311,0.00020762,0.00004938,0.00183836,-0.00001523,-0.00038417,-0.000
 25279,0.00012089,0.00094426,0.00051174,0.00074459,-0.00005588,0.000072
 61,-0.00006377,0.00000031,0.00011317,-0.00012738,-0.00007333,0.0000247
 3,0.00002481,0.00002054,0.00000782,0.00002324,0.00000437,-0.00002801,-
 0.00000330,0.00013111,0.00043766,0.00008661,-0.00021106,0.00053417,-0.
 00009030,-0.00001436,0.00000216,-0.00002536,0.00000777,-0.00001538,0.0
 0000463,0.00004584,0.00001156,-0.00003230,-0.00000218,-0.00001753,0.00
 000007,0.00000178,0.00000222,0.00000496,-0.00001432,0.00000335,0.00000
 105,0.00000512,0.00000087,-0.00000190,-0.00000839,0.00000414,0.0000087
 2,0.00000967,0.00001755,0.00002553,-0.00001503,-0.00000601,-0.00001234
 ,-0.09982314,-0.28789430,-0.06278105,-0.00001875,-0.00003047,0.0000072
 0,-0.00021305,0.00025040,-0.00027679,-0.00998819,-0.01420549,-0.006519
 89,0.10928827,0.29852436,-0.00037634,-0.00044369,-0.00026479,-0.004456
 76,0.00083534,0.00171257,-0.00605519,-0.01514055,0.00062941,0.00131576
 ,-0.00148741,-0.00156381,0.00025451,0.00048136,-0.00017182,0.00027633,
 -0.00045112,0.00034070,-0.00000122,0.00002733,-0.00008033,-0.00000706,
 0.00001480,-0.00001033,0.00000770,0.00000318,0.00002833,0.00002503,-0.
 00018745,0.00001191,0.00030950,0.00085710,-0.00032812,-0.00006578,-0.0
 0001889,-0.00003367,-0.00002945,-0.00001369,-0.00002610,-0.00006313,0.
 00003440,0.00003461,0.00001451,0.00001433,-0.00001603,0.00002001,-0.00
 000204,-0.00001170,0.00000018,0.00001237,0.00000378,-0.00000832,0.0000
 0755,-0.00000723,0.00000230,0.00000701,-0.00000070,-0.00000684,-0.0000
 1417,-0.00000945,-0.00018692,-0.00013106,-0.00011484,-0.04366612,-0.06
 119686,-0.05027145,-0.00011428,-0.00004916,0.00003420,0.00017121,-0.00
 035134,-0.00023093,0.00351971,0.00850293,0.00511115,0.04912065,0.06868
 969,0.04523467\\-0.00000132,-0.00000015,0.00000190,0.00000082,0.000000
 63,0.00000244,-0.00000097,0.00000048,-0.00000132,-0.00000220,0.0000010
 2,-0.00000082,0.00000214,0.00000050,0.00000106,0.00000112,0.00000124,-
 0.00000266,-0.00000210,-0.00000286,0.00000155,0.00000157,0.00000008,0.
 00000026,-0.00000279,-0.00000140,-0.00000198,0.00000107,0.00000129,0.0
 0000109,-0.00000129,0.00000069,-0.00000063,-0.00000012,-0.00000090,-0.
 00000148,0.00000057,-0.00000060,-0.00000017,0.00000053,-0.00000106,0.0
 0000236,0.00000155,-0.00000082,-0.00000005,0.00000086,-0.00000084,0.,0
 .00000057,-0.00000101,-0.00000004,-0.00000103,-0.00000111,-0.00000178,
 -0.00000090,-0.00000133,-0.00000105,-0.00000132,0.00000039,-0.00000110
 ,0.00000023,-0.00000102,0.00000076,0.00000039,0.00000186,0.00000114,0.
 00000211,-0.00000058,0.00000105,0.00000117,0.00000060,-0.00000173,0.00
 000003,0.00000257,0.00000113,-0.00000072,0.00000233,0.00000008\\\@
 The archive entry for this job was punched.


 ...THE PHYSICISTS HAVE MADE THEIR UNIVERSE, AND IF YOU DO NOT LIKE
 IT, YOU MUST MAKE YOUR OWN.
                               -- E. R. HARRISON IN "COSMOLOGY" (1980)
 Job cpu time:       0 days  9 hours 42 minutes  5.2 seconds.
 Elapsed time:       0 days  0 hours 48 minutes 40.7 seconds.
 File lengths (MBytes):  RWF=   1056 Int=      0 D2E=      0 Chk=     40 Scr=     16
 Normal termination of Gaussian 16 at Wed Nov 24 02:36:48 2021.
