 Entering Link 1 = C:\G09W\l1.exe PID=      8616.
  
 Copyright (c) 1988,1990,1992,1993,1995,1998,2003,2009, Gaussian, Inc.
                  All Rights Reserved.
  
 This is part of the Gaussian(R) 09 program.  It is based on
 the Gaussian(R) 03 system (copyright 2003, Gaussian, Inc.),
 the Gaussian(R) 98 system (copyright 1998, Gaussian, Inc.),
 the Gaussian(R) 94 system (copyright 1995, Gaussian, Inc.),
 the Gaussian 92(TM) system (copyright 1992, Gaussian, Inc.),
 the Gaussian 90(TM) system (copyright 1990, Gaussian, Inc.),
 the Gaussian 88(TM) system (copyright 1988, Gaussian, Inc.),
 the Gaussian 86(TM) system (copyright 1986, Carnegie Mellon
 University), and the Gaussian 82(TM) system (copyright 1983,
 Carnegie Mellon University). Gaussian is a federally registered
 trademark of Gaussian, Inc.
  
 This software contains proprietary and confidential information,
 including trade secrets, belonging to Gaussian, Inc.
  
 This software is provided under written license and may be
 used, copied, transmitted, or stored only in accord with that
 written license.
  
 The following legend is applicable only to US Government
 contracts under FAR:
  
                    RESTRICTED RIGHTS LEGEND
  
 Use, reproduction and disclosure by the US Government is
 subject to restrictions as set forth in subparagraphs (a)
 and (c) of the Commercial Computer Software - Restricted
 Rights clause in FAR 52.227-19.
  
 Gaussian, Inc.
 340 Quinnipiac St., Bldg. 40, Wallingford CT 06492
  
  
 ---------------------------------------------------------------
 Warning -- This program may not be used in any manner that
 competes with the business of Gaussian, Inc. or will provide
 assistance to any competitor of Gaussian, Inc.  The licensee
 of this program is prohibited from giving any competitor of
 Gaussian, Inc. access to this program.  By using this program,
 the user acknowledges that Gaussian, Inc. is engaged in the
 business of creating and licensing software in the field of
 computational chemistry and represents and warrants to the
 licensee that it is not a competitor of Gaussian, Inc. and that
 it will not use this program in any manner prohibited above.
 ---------------------------------------------------------------
  

 Cite this work as:
 Gaussian 09, Revision A.02,
 M. J. Frisch, G. W. Trucks, H. B. Schlegel, G. E. Scuseria, 
 M. A. Robb, J. R. Cheeseman, G. Scalmani, V. Barone, B. Mennucci, 
 G. A. Petersson, H. Nakatsuji, M. Caricato, X. Li, H. P. Hratchian, 
 A. F. Izmaylov, J. Bloino, G. Zheng, J. L. Sonnenberg, M. Hada, 
 M. Ehara, K. Toyota, R. Fukuda, J. Hasegawa, M. Ishida, T. Nakajima, 
 Y. Honda, O. Kitao, H. Nakai, T. Vreven, J. A. Montgomery, Jr., 
 J. E. Peralta, F. Ogliaro, M. Bearpark, J. J. Heyd, E. Brothers, 
 K. N. Kudin, V. N. Staroverov, R. Kobayashi, J. Normand, 
 K. Raghavachari, A. Rendell, J. C. Burant, S. S. Iyengar, J. Tomasi, 
 M. Cossi, N. Rega, J. M. Millam, M. Klene, J. E. Knox, J. B. Cross, 
 V. Bakken, C. Adamo, J. Jaramillo, R. Gomperts, R. E. Stratmann, 
 O. Yazyev, A. J. Austin, R. Cammi, C. Pomelli, J. W. Ochterski, 
 R. L. Martin, K. Morokuma, V. G. Zakrzewski, G. A. Voth, 
 P. Salvador, J. J. Dannenberg, S. Dapprich, A. D. Daniels, 
 O. Farkas, J. B. Foresman, J. V. Ortiz, J. Cioslowski, 
 and D. J. Fox, Gaussian, Inc., Wallingford CT, 2009.
 
 ******************************************
 Gaussian 09:  IA32W-G09RevA.02 11-Jun-2009
                07-Feb-2022 
 ******************************************
 --------------
 # 3-21g wb97xd
 --------------
 1/38=1/1;
 2/12=2,17=6,18=5,40=1/2;
 3/5=5,11=2,16=1,25=1,30=1,74=-58/1,2,3;
 4//1;
 5/5=2,38=5/2;
 6/7=2,8=2,9=2,10=2,28=1/1;
 99/5=1,9=1/99;
 -------------------
 Title Card Required
 -------------------
 Symbolic Z-matrix:
 Charge =  0 Multiplicity = 3
 C                    -0.00037   0.00002   0.00007 
 H                     0.45704  -0.46392  -0.87651 
 H                     0.3368   -0.51639   0.90091 
 H                     0.29552   1.04984   0.05079 
 H                    -1.08713  -0.06963  -0.07558 
 
                          Input orientation:                          
 ---------------------------------------------------------------------
 Center     Atomic      Atomic             Coordinates (Angstroms)
 Number     Number       Type             X           Y           Z
 ---------------------------------------------------------------------
      1          6           0       -0.000371    0.000015    0.000066
      2          1           0        0.457036   -0.463921   -0.876510
      3          1           0        0.336795   -0.516385    0.900906
      4          1           0        0.295520    1.049842    0.050789
      5          1           0       -1.087125   -0.069629   -0.075582
 ---------------------------------------------------------------------
                    Distance matrix (angstroms):
                    1          2          3          4          5
     1  C    0.000000
     2  H    1.092174   0.000000
     3  H    1.091725   1.782251   0.000000
     4  H    1.091907   1.782540   1.782546   0.000000
     5  H    1.091608   1.783644   1.783443   1.783506   0.000000
 Stoichiometry    CH4
 Framework group  C1[X(CH4)]
 Deg. of freedom     9
 Full point group                 C1      NOp   1
 Largest Abelian subgroup         C1      NOp   1
 Largest concise Abelian subgroup C1      NOp   1
                         Standard orientation:                         
 ---------------------------------------------------------------------
 Center     Atomic      Atomic             Coordinates (Angstroms)
 Number     Number       Type             X           Y           Z
 ---------------------------------------------------------------------
      1          6           0       -0.000371    0.000015    0.000066
      2          1           0        0.456997   -0.463959   -0.876510
      3          1           0        0.336752   -0.516413    0.900906
      4          1           0        0.295608    1.049818    0.050789
      5          1           0       -1.087131   -0.069538   -0.075582
 ---------------------------------------------------------------------
 Rotational constants (GHZ):    157.8349060    157.7061254    157.6714648
 Standard basis: 3-21G (6D, 7F)
 There are    17 symmetry adapted basis functions of A   symmetry.
 Integral buffers will be    262144 words long.
 Raffenetti 2 integral format.
 Two-electron integral symmetry is turned on.
    17 basis functions,    27 primitive gaussians,    17 cartesian basis functions
     5 alpha electrons        5 beta electrons
       nuclear repulsion energy        13.4125863736 Hartrees.
 NAtoms=    5 NActive=    5 NUniq=    5 SFac= 7.50D-01 NAtFMM=   80 NAOKFM=F Big=F
 Nuclear repulsion after empirical dispersion term =       13.4121850810 Hartrees.
 One-electron integrals computed using PRISM.
 NBasis=    17 RedAO= T  NBF=    17
 NBsUse=    17 1.00D-06 NBFU=    17
 Harris functional with IExCor= 4639 diagonalized for initial guess.
 ExpMin= 1.83D-01 ExpMax= 1.72D+02 ExpMxC= 1.72D+02 IAcc=1 IRadAn=         1 AccDes= 0.00D+00
 HarFok:  IExCor= 4639 AccDes= 0.00D+00 IRadAn=         1 IDoV= 1
 ScaDFX=  1.000000  1.000000  1.000000  1.000000
 FoFCou: FMM=F IPFlag=           0 FMFlag=      100000 FMFlg1=           0
         NFxFlg=           0 DoJE=T BraDBF=F KetDBF=T FulRan=T
         Omega=  0.000000  0.000000  1.000000  0.000000  0.000000 ICntrl=     500 IOpCl=  0
         NMat0=    1 NMatS0=    1 NMatT0=    0 NMatD0=    1 NMtDS0=    0 NMtDT0=    0
         I1Cent=           4 NGrid=           0.
 Petite list used in FoFCou.
 Initial guess orbital symmetries:
       Occupied  (A) (A) (A) (A) (A)
       Virtual   (A) (A) (A) (A) (A) (A) (A) (A) (A) (A) (A) (A)
 The electronic state of the initial guess is 1-A.
 Requested convergence on RMS density matrix=1.00D-08 within 128 cycles.
 Requested convergence on MAX density matrix=1.00D-06.
 Requested convergence on             energy=1.00D-06.
 No special actions if energy rises.
 Integral accuracy reduced to 1.0D-05 until final iterations.
 FoFJK:  IHMeth= 1 ICntrl=     0 DoSepK=T KAlg= 1 I1Cent= 0 FoldK=F
 FoFJK:  IHMeth= 1 ICntrl=     0 DoSepK=T KAlg= 1 I1Cent= 0 FoldK=F
 FoFJK:  IHMeth= 1 ICntrl=     0 DoSepK=T KAlg= 1 I1Cent= 0 FoldK=F
 FoFJK:  IHMeth= 1 ICntrl=     0 DoSepK=T KAlg= 1 I1Cent= 0 FoldK=F
 FoFJK:  IHMeth= 1 ICntrl=     0 DoSepK=T KAlg= 1 I1Cent= 0 FoldK=F
 Initial convergence to 1.0D-05 achieved.  Increase integral accuracy.
 FoFJK:  IHMeth= 1 ICntrl=     0 DoSepK=T KAlg= 1 I1Cent= 0 FoldK=F
 FoFJK:  IHMeth= 1 ICntrl=     0 DoSepK=T KAlg= 1 I1Cent= 0 FoldK=F
 FoFJK:  IHMeth= 1 ICntrl=     0 DoSepK=T KAlg= 1 I1Cent= 0 FoldK=F
 FoFJK:  IHMeth= 1 ICntrl=     0 DoSepK=T KAlg= 1 I1Cent= 0 FoldK=F
 FoFJK:  IHMeth= 1 ICntrl=     0 DoSepK=T KAlg= 1 I1Cent= 0 FoldK=F
 FoFJK:  IHMeth= 1 ICntrl=     0 DoSepK=T KAlg= 1 I1Cent= 0 FoldK=F
 SCF Done:  E(RwB97XD) =  -40.2861381875     A.U. after   11 cycles
             Convg  =    0.5238D-08             -V/T =  2.0106
 Annihilation of the first spin contaminant:
 S**2 before annihilation     1.0208,   after     0.8712

 **********************************************************************

            Population analysis using the SCF density.

 **********************************************************************

 Orbital symmetries:
       Occupied  (A) (A) (A) (A) (A)
       Virtual   (A) (A) (A) (A) (A) (A) (A) (A) (A) (A) (A) (A)
 The electronic state is 1-A.
 Alpha  occ. eigenvalues --  -10.20844  -0.78689  -0.47276  -0.47247  -0.47233
 Alpha virt. eigenvalues --    0.23540   0.28039   0.28052   0.28070   0.79557
 Alpha virt. eigenvalues --    0.79567   0.79577   1.12440   1.16004   1.16028
 Alpha virt. eigenvalues --    1.16061   1.79188
          Condensed to atoms (all electrons):
              1          2          3          4          5
     1  C    5.370323   0.367587   0.367643   0.367643   0.367786
     2  H    0.367587   0.493266  -0.023711  -0.023693  -0.023563
     3  H    0.367643  -0.023711   0.493043  -0.023668  -0.023577
     4  H    0.367643  -0.023693  -0.023668   0.493070  -0.023580
     5  H    0.367786  -0.023563  -0.023577  -0.023580   0.492563
 Mulliken atomic charges:
              1
     1  C   -0.840982
     2  H    0.210113
     3  H    0.210270
     4  H    0.210228
     5  H    0.210371
 Sum of Mulliken atomic charges =   0.00000
 Mulliken charges with hydrogens summed into heavy atoms:
              1
     1  C    0.000000
 Sum of Mulliken charges with hydrogens summed into heavy atoms =   0.00000
 Electronic spatial extent (au):  <R**2>=             35.3205
 Charge=              0.0000 electrons
 Dipole moment (field-independent basis, Debye):
    X=              0.0014    Y=             -0.0001    Z=              0.0000  Tot=              0.0014
 Quadrupole moment (field-independent basis, Debye-Ang):
   XX=             -8.1968   YY=             -8.2024   ZZ=             -8.2037
   XY=              0.0002   XZ=              0.0005   YZ=             -0.0005
 Traceless Quadrupole moment (field-independent basis, Debye-Ang):
   XX=              0.0042   YY=             -0.0014   ZZ=             -0.0028
   XY=              0.0002   XZ=              0.0005   YZ=             -0.0005
 Octapole moment (field-independent basis, Debye-Ang**2):
  XXX=             -0.9450  YYY=              0.7704  ZZZ=              0.0493  XYY=              0.4275
  XXY=             -0.1227  XXZ=             -0.1390  XZZ=              0.5197  YZZ=             -0.6480
  YYZ=              0.0902  XYZ=              0.0327
 Hexadecapole moment (field-independent basis, Debye-Ang**3):
 XXXX=            -14.0965 YYYY=            -14.2490 ZZZZ=            -14.3466 XXXY=              0.0626
 XXXZ=              0.0593 YYYX=              0.2976 YYYZ=              0.0255 ZZZX=             -0.0715
 ZZZY=             -0.0781 XXYY=             -5.0664 XXZZ=             -4.9685 YYZZ=             -4.8199
 XXYZ=              0.0508 YYXZ=              0.0141 ZZXY=             -0.3594
 N-N= 1.341218508100D+01 E-N=-1.193747411429D+02  KE= 3.986254649268D+01
 1|1|UNPC-DESKTOP-8TQV1GH|SP|RwB97XD|3-21G|C1H4|JUANV|07-Feb-2022|0||# 
 3-21g wb97xd||Title Card Required||0,1|C,0,-0.000371,0.000015,0.000066
 |H,0,0.457036,-0.463921,-0.87651|H,0,0.336795,-0.516385,0.900906|H,0,0
 .29552,1.049842,0.050789|H,0,-1.087125,-0.069629,-0.075582||Version=IA
 32W-G09RevA.02|State=1-A|HF=-40.2861382|RMSD=5.238e-009|Dipole=0.00054
 81,-0.0000231,0.0000121|Quadrupole=0.0031089,-0.0010596,-0.0020494,0.0
 001376,0.0003575,-0.0003395|PG=C01 [X(C1H4)]||@


 THE PROBLEM WITH THE LADDER OF SUCCESS IS YOU CAN'T
 CLIMB IT WHILE YOU'RE TWIDDLING YOUR THUMBS.
 Job cpu time:  0 days  0 hours  0 minutes  2.0 seconds.
 File lengths (MBytes):  RWF=      5 Int=      0 D2E=      0 Chk=      1 Scr=      1
 Normal termination of Gaussian 09 at Mon Feb 07 11:03:56 2022.
