 Entering Link 1 = C:\G09W\l1.exe PID=     10528.
  
 Copyright (c) 1988,1990,1992,1993,1995,1998,2003,2009, Gaussian, Inc.
                  All Rights Reserved.
  
 This is part of the Gaussian(R) 09 program.  It is based on
 the Gaussian(R) 03 system (copyright 2003, Gaussian, Inc.),
 the Gaussian(R) 98 system (copyright 1998, Gaussian, Inc.),
 the Gaussian(R) 94 system (copyright 1995, Gaussian, Inc.),
 the Gaussian 92(TM) system (copyright 1992, Gaussian, Inc.),
 the Gaussian 90(TM) system (copyright 1990, Gaussian, Inc.),
 the Gaussian 88(TM) system (copyright 1988, Gaussian, Inc.),
 the Gaussian 86(TM) system (copyright 1986, Carnegie Mellon
 University), and the Gaussian 82(TM) system (copyright 1983,
 Carnegie Mellon University). Gaussian is a federally registered
 trademark of Gaussian, Inc.
  
 This software contains proprietary and confidential information,
 including trade secrets, belonging to Gaussian, Inc.
  
 This software is provided under written license and may be
 used, copied, transmitted, or stored only in accord with that
 written license.
  
 The following legend is applicable only to US Government
 contracts under FAR:
  
                    RESTRICTED RIGHTS LEGEND
  
 Use, reproduction and disclosure by the US Government is
 subject to restrictions as set forth in subparagraphs (a)
 and (c) of the Commercial Computer Software - Restricted
 Rights clause in FAR 52.227-19.
  
 Gaussian, Inc.
 340 Quinnipiac St., Bldg. 40, Wallingford CT 06492
  
  
 ---------------------------------------------------------------
 Warning -- This program may not be used in any manner that
 competes with the business of Gaussian, Inc. or will provide
 assistance to any competitor of Gaussian, Inc.  The licensee
 of this program is prohibited from giving any competitor of
 Gaussian, Inc. access to this program.  By using this program,
 the user acknowledges that Gaussian, Inc. is engaged in the
 business of creating and licensing software in the field of
 computational chemistry and represents and warrants to the
 licensee that it is not a competitor of Gaussian, Inc. and that
 it will not use this program in any manner prohibited above.
 ---------------------------------------------------------------
  

 Cite this work as:
 Gaussian 09, Revision A.02,
 M. J. Frisch, G. W. Trucks, H. B. Schlegel, G. E. Scuseria, 
 M. A. Robb, J. R. Cheeseman, G. Scalmani, V. Barone, B. Mennucci, 
 G. A. Petersson, H. Nakatsuji, M. Caricato, X. Li, H. P. Hratchian, 
 A. F. Izmaylov, J. Bloino, G. Zheng, J. L. Sonnenberg, M. Hada, 
 M. Ehara, K. Toyota, R. Fukuda, J. Hasegawa, M. Ishida, T. Nakajima, 
 Y. Honda, O. Kitao, H. Nakai, T. Vreven, J. A. Montgomery, Jr., 
 J. E. Peralta, F. Ogliaro, M. Bearpark, J. J. Heyd, E. Brothers, 
 K. N. Kudin, V. N. Staroverov, R. Kobayashi, J. Normand, 
 K. Raghavachari, A. Rendell, J. C. Burant, S. S. Iyengar, J. Tomasi, 
 M. Cossi, N. Rega, J. M. Millam, M. Klene, J. E. Knox, J. B. Cross, 
 V. Bakken, C. Adamo, J. Jaramillo, R. Gomperts, R. E. Stratmann, 
 O. Yazyev, A. J. Austin, R. Cammi, C. Pomelli, J. W. Ochterski, 
 R. L. Martin, K. Morokuma, V. G. Zakrzewski, G. A. Voth, 
 P. Salvador, J. J. Dannenberg, S. Dapprich, A. D. Daniels, 
 O. Farkas, J. B. Foresman, J. V. Ortiz, J. Cioslowski, 
 and D. J. Fox, Gaussian, Inc., Wallingford CT, 2009.
 
 ******************************************
 Gaussian 09:  IA32W-G09RevA.02 11-Jun-2009
                11-Feb-2022 
 ******************************************
 ----------------------------------------------------------------
 # opt=maxcycles=100 freq=noraman b3lyp/6-31g symmetry=(PG=Cinfv)
 ----------------------------------------------------------------
 1/6=100,14=-1,18=20,19=15,26=3,38=1/1,3;
 2/9=110,12=2,17=6,18=5,19=1179535683,20=538976374,40=1/2;
 3/5=1,6=6,11=2,16=1,25=1,30=1,71=1,74=-5/1,2,3;
 4//1;
 5/5=2,38=5/2;
 6/7=2,8=2,9=2,10=2,28=1/1;
 7//1,2,3,16;
 1/6=100,14=-1,18=20,19=15/3(2);
 2/9=110,19=1179535683,20=538976374/2;
 99//99;
 2/9=110,19=1179535683,20=538976374/2;
 3/5=1,6=6,11=2,16=1,25=1,30=1,71=1,74=-5/1,2,3;
 4/5=5,16=3/1;
 5/5=2,38=5/2;
 7//1,2,3,16;
 1/6=100,14=-1,18=20,19=15/3(-5);
 2/9=110,19=1179535683,20=538976374/2;
 6/7=2,8=2,9=2,10=2,19=2,28=1/1;
 99/9=1/99;
 -------------------
 Title Card Required
 -------------------
 Symbolic Z-matrix:
 Charge =  0 Multiplicity = 1
 C                     0.        0.        0.00085 
 O                     0.        1.18791  -0.00032 
 O                     0.       -1.18791  -0.00032 
 

 GradGradGradGradGradGradGradGradGradGradGradGradGradGradGradGradGradGrad
 Berny optimization.
 Initialization pass.
                           ----------------------------
                           !    Initial Parameters    !
                           ! (Angstroms and Degrees)  !
 --------------------------                            --------------------------
 ! Name  Definition              Value          Derivative Info.                !
 --------------------------------------------------------------------------------
 ! R1    R(1,2)                  1.1879         estimate D2E/DX2                !
 ! R2    R(1,3)                  1.1879         estimate D2E/DX2                !
 ! A1    L(2,1,3,-1,-1)        179.8869         estimate D2E/DX2                !
 ! A2    L(2,1,3,-3,-2)        180.0            estimate D2E/DX2                !
 --------------------------------------------------------------------------------
 Trust Radius=3.00D-01 FncErr=1.00D-07 GrdErr=1.00D-06
 Number of steps in this run= 100 maximum allowed number of steps= 100.
 GradGradGradGradGradGradGradGradGradGradGradGradGradGradGradGradGradGrad

                          Input orientation:                          
 ---------------------------------------------------------------------
 Center     Atomic      Atomic             Coordinates (Angstroms)
 Number     Number       Type             X           Y           Z
 ---------------------------------------------------------------------
      1          6           0        0.000000    0.000000    0.000852
      2          8           0        0.000000    1.187909   -0.000320
      3          8           0        0.000000   -1.187909   -0.000320
 ---------------------------------------------------------------------
                    Distance matrix (angstroms):
                    1          2          3
     1  C    0.000000
     2  O    1.187910   0.000000
     3  O    1.187910   2.375818   0.000000
 Symm:  InNGrp=CINF InAxis=*.
 This structure is nearly, but not quite of a higher symmetry.
 Consider Symm=Loose if the higher symmetry is desired.
 Stoichiometry    CO2
 Framework group  C2[C2(C),X(O2)]
 Deg. of freedom     2
 Full point group                 C2      NOp   2
 Largest Abelian subgroup         C2      NOp   2
 Largest concise Abelian subgroup C2      NOp   2
                         Standard orientation:                         
 ---------------------------------------------------------------------
 Center     Atomic      Atomic             Coordinates (Angstroms)
 Number     Number       Type             X           Y           Z
 ---------------------------------------------------------------------
      1          6           0        0.000000    0.000000    0.000852
      2          8           0        0.000000    1.187909   -0.000320
      3          8           0        0.000000   -1.187909   -0.000320
 ---------------------------------------------------------------------
 Rotational constants (GHZ):***************     11.1953823     11.1953793
 Standard basis: 6-31G (6D, 7F)
 There are    14 symmetry adapted basis functions of A   symmetry.
 There are    13 symmetry adapted basis functions of B   symmetry.
 Integral buffers will be    262144 words long.
 Raffenetti 2 integral format.
 Two-electron integral symmetry is turned on.
    27 basis functions,    66 primitive gaussians,    27 cartesian basis functions
    11 alpha electrons       11 beta electrons
       nuclear repulsion energy        57.0200730652 Hartrees.
 NAtoms=    3 NActive=    3 NUniq=    2 SFac= 1.69D+00 NAtFMM=   80 NAOKFM=F Big=F
 One-electron integrals computed using PRISM.
 NBasis=    27 RedAO= T  NBF=    14    13
 NBsUse=    27 1.00D-06 NBFU=    14    13
 Harris functional with IExCor=  402 diagonalized for initial guess.
 ExpMin= 1.69D-01 ExpMax= 5.48D+03 ExpMxC= 8.25D+02 IAcc=1 IRadAn=         1 AccDes= 0.00D+00
 HarFok:  IExCor=  402 AccDes= 0.00D+00 IRadAn=         1 IDoV= 1
 ScaDFX=  1.000000  1.000000  1.000000  1.000000
 FoFCou: FMM=F IPFlag=           0 FMFlag=      100000 FMFlg1=           0
         NFxFlg=           0 DoJE=T BraDBF=F KetDBF=T FulRan=T
         Omega=  0.000000  0.000000  1.000000  0.000000  0.000000 ICntrl=     500 IOpCl=  0
         NMat0=    1 NMatS0=    1 NMatT0=    0 NMatD0=    1 NMtDS0=    0 NMtDT0=    0
         I1Cent=           4 NGrid=           0.
 Petite list used in FoFCou.
 Initial guess orbital symmetries:
       Occupied  (B) (A) (A) (A) (B) (A) (B) (B) (A) (A) (B)
       Virtual   (A) (B) (A) (B) (B) (A) (A) (B) (A) (B) (A) (B)
                 (A) (B) (A) (B)
 The electronic state of the initial guess is 1-A.
 Requested convergence on RMS density matrix=1.00D-08 within 128 cycles.
 Requested convergence on MAX density matrix=1.00D-06.
 Requested convergence on             energy=1.00D-06.
 No special actions if energy rises.
 Keep R1 ints in memory in canonical form, NReq=971273.
 Integral accuracy reduced to 1.0D-05 until final iterations.
 Initial convergence to 1.0D-05 achieved.  Increase integral accuracy.
 SCF Done:  E(RB3LYP) =  -188.500269413     A.U. after   10 cycles
             Convg  =    0.1225D-08             -V/T =  2.0061

 **********************************************************************

            Population analysis using the SCF density.

 **********************************************************************

 Orbital symmetries:
       Occupied  (B) (A) (A) (A) (B) (A) (B) (A) (B) (A) (B)
       Virtual   (A) (B) (A) (B) (B) (A) (A) (B) (A) (A) (B) (B)
                 (A) (B) (A) (B)
 The electronic state is 1-A.
 Alpha  occ. eigenvalues --  -19.25218 -19.25207 -10.40492  -1.18393  -1.14827
 Alpha  occ. eigenvalues --   -0.56333  -0.52569  -0.52569  -0.51565  -0.37293
 Alpha  occ. eigenvalues --   -0.37293
 Alpha virt. eigenvalues --   -0.00352  -0.00351   0.05630   0.37143   0.46625
 Alpha virt. eigenvalues --    0.46625   0.60864   0.72385   0.86707   0.87366
 Alpha virt. eigenvalues --    0.87366   1.00060   1.04032   1.04032   1.64009
 Alpha virt. eigenvalues --    1.96542
          Condensed to atoms (all electrons):
              1          2          3
     1  C    4.480212   0.465358   0.465358
     2  O    0.465358   7.847541  -0.018362
     3  O    0.465358  -0.018362   7.847541
 Mulliken atomic charges:
              1
     1  C    0.589073
     2  O   -0.294536
     3  O   -0.294536
 Sum of Mulliken atomic charges =   0.00000
 Mulliken charges with hydrogens summed into heavy atoms:
              1
     1  C    0.589073
     2  O   -0.294536
     3  O   -0.294536
 Sum of Mulliken charges with hydrogens summed into heavy atoms =   0.00000
 Electronic spatial extent (au):  <R**2>=            117.6150
 Charge=              0.0000 electrons
 Dipole moment (field-independent basis, Debye):
    X=              0.0000    Y=              0.0000    Z=              0.0026  Tot=              0.0026
 Quadrupole moment (field-independent basis, Debye-Ang):
   XX=            -14.6619   YY=            -20.4253   ZZ=            -14.6619
   XY=              0.0000   XZ=              0.0000   YZ=              0.0000
 Traceless Quadrupole moment (field-independent basis, Debye-Ang):
   XX=              1.9211   YY=             -3.8422   ZZ=              1.9211
   XY=              0.0000   XZ=              0.0000   YZ=              0.0000
 Octapole moment (field-independent basis, Debye-Ang**2):
  XXX=              0.0000  YYY=              0.0000  ZZZ=             -0.0020  XYY=              0.0000
  XXY=              0.0000  XXZ=             -0.0007  XZZ=              0.0000  YZZ=              0.0000
  YYZ=             -0.0020  XYZ=              0.0000
 Hexadecapole moment (field-independent basis, Debye-Ang**3):
 XXXX=            -10.7252 YYYY=           -107.8982 ZZZZ=            -10.7252 XXXY=              0.0000
 XXXZ=              0.0000 YYYX=              0.0000 YYYZ=              0.0000 ZZZX=              0.0000
 ZZZY=              0.0000 XXYY=            -18.8547 XXZZ=             -3.5751 YYZZ=            -18.8547
 XXYZ=              0.0000 YYXZ=              0.0000 ZZXY=              0.0000
 N-N= 5.702007306521D+01 E-N=-5.570887820436D+02  KE= 1.873580023421D+02
 Symmetry A    KE= 1.096631358585D+02
 Symmetry B    KE= 7.769486648369D+01
 Calling FoFJK, ICntrl=      2127 FMM=F ISym2X=1 I1Cent= 0 IOpClX= 0 NMat=1 NMatS=1 NMatT=0.
 ***** Axes restored to original set *****
 -------------------------------------------------------------------
 Center     Atomic                   Forces (Hartrees/Bohr)
 Number     Number              X              Y              Z
 -------------------------------------------------------------------
      1        6           0.000000000    0.000000000   -0.000231892
      2        8           0.000000000    0.000007474    0.000115946
      3        8           0.000000000   -0.000007474    0.000115946
 -------------------------------------------------------------------
 Cartesian Forces:  Max     0.000231892 RMS     0.000094735

 GradGradGradGradGradGradGradGradGradGradGradGradGradGradGradGradGradGrad
 Berny optimization.
 Internal  Forces:  Max     0.000260216 RMS     0.000130111
 Search for a local minimum.
 Step number   1 out of a maximum of  100
 All quantities printed in internal units (Hartrees-Bohrs-Radians)
 Mixed Optimization -- En-DIIS/RFO-DIIS
 Second derivative matrix not updated -- first step.
 The second derivative matrix:
                          R1        R2        A1        A2
           R1           1.11141
           R2           0.00000   1.11141
           A1           0.00000   0.00000   0.04497
           A2           0.00000   0.00000   0.00000   0.04497
     Eigenvalues ---    0.04497   0.04502   1.111411000.00000
 RFO step:  Lambda=-1.50416271D-06 EMin= 4.49732999D-02
 Linear search not attempted -- first point.
 Iteration  1 RMS(Cart)=  0.00264857 RMS(Int)=  0.00000663
 Iteration  2 RMS(Cart)=  0.00000663 RMS(Int)=  0.00000000
 Iteration  3 RMS(Cart)=  0.00000000 RMS(Int)=  0.00000000
 ClnCor:  largest displacement from symmetrization is 1.00D-15 for atom     1.
 Variable       Old X    -DE/DX   Delta X   Delta X   Delta X     New X
                                 (Linear)    (Quad)   (Total)
    R1        2.24482   0.00000   0.00000  -0.00003  -0.00003   2.24480
    R2        2.24482   0.00000   0.00000  -0.00003  -0.00003   2.24480
    A1        3.13962   0.00026   0.00000   0.00578   0.00578   3.14540
    A2        3.14159   0.00000   0.00000   0.00000   0.00000   3.14159
         Item               Value     Threshold  Converged?
 Maximum Force            0.000260     0.000450     YES
 RMS     Force            0.000130     0.000300     YES
 Maximum Displacement     0.004325     0.001800     NO 
 RMS     Displacement     0.002649     0.001200     NO 
 Predicted change in Energy=-7.520814D-07
 GradGradGradGradGradGradGradGradGradGradGradGradGradGradGradGradGradGrad

                          Input orientation:                          
 ---------------------------------------------------------------------
 Center     Atomic      Atomic             Coordinates (Angstroms)
 Number     Number       Type             X           Y           Z
 ---------------------------------------------------------------------
      1          6           0        0.000000    0.000000   -0.001437
      2          8           0        0.000000    1.187893    0.000824
      3          8           0        0.000000   -1.187893    0.000824
 ---------------------------------------------------------------------
                    Distance matrix (angstroms):
                    1          2          3
     1  C    0.000000
     2  O    1.187895   0.000000
     3  O    1.187895   2.375787   0.000000
 Symm:  InNGrp=CINF InAxis=*.
 Stoichiometry    CO2
 Framework group  C2[C2(C),X(O2)]
 Deg. of freedom     2
 Full point group                 C2      NOp   2
 Largest Abelian subgroup         C2      NOp   2
 Largest concise Abelian subgroup C2      NOp   2
                         Standard orientation:                         
 ---------------------------------------------------------------------
 Center     Atomic      Atomic             Coordinates (Angstroms)
 Number     Number       Type             X           Y           Z
 ---------------------------------------------------------------------
      1          6           0        0.000000    0.000000    0.001644
      2          8           0        0.000000    1.187893   -0.000617
      3          8           0        0.000000   -1.187893   -0.000617
 ---------------------------------------------------------------------
 Rotational constants (GHZ):***************     11.1956778     11.1956667
 Standard basis: 6-31G (6D, 7F)
 There are    14 symmetry adapted basis functions of A   symmetry.
 There are    13 symmetry adapted basis functions of B   symmetry.
 Integral buffers will be    262144 words long.
 Raffenetti 2 integral format.
 Two-electron integral symmetry is turned on.
    27 basis functions,    66 primitive gaussians,    27 cartesian basis functions
    11 alpha electrons       11 beta electrons
       nuclear repulsion energy        57.0207688186 Hartrees.
 NAtoms=    3 NActive=    3 NUniq=    2 SFac= 1.69D+00 NAtFMM=   80 NAOKFM=F Big=F
 One-electron integrals computed using PRISM.
 NBasis=    27 RedAO= T  NBF=    14    13
 NBsUse=    27 1.00D-06 NBFU=    14    13
 Initial guess read from the read-write file.
 B after Tr=     0.000000    0.000000    0.000000
         Rot=    1.000000    0.000000    0.000000    0.000000 Ang=   0.00 deg.
 Initial guess orbital symmetries:
       Occupied  (B) (A) (A) (A) (B) (A) (B) (A) (B) (A) (B)
       Virtual   (A) (B) (A) (B) (B) (A) (A) (B) (A) (A) (B) (B)
                 (A) (B) (A) (B)
 Requested convergence on RMS density matrix=1.00D-08 within 128 cycles.
 Requested convergence on MAX density matrix=1.00D-06.
 Requested convergence on             energy=1.00D-06.
 No special actions if energy rises.
 Keep R1 ints in memory in canonical form, NReq=971273.
 SCF Done:  E(RB3LYP) =  -188.500268713     A.U. after    6 cycles
             Convg  =    0.3353D-08             -V/T =  2.0061
 Calling FoFJK, ICntrl=      2127 FMM=F ISym2X=1 I1Cent= 0 IOpClX= 0 NMat=1 NMatS=1 NMatT=0.
 ***** Axes restored to original set *****
 -------------------------------------------------------------------
 Center     Atomic                   Forces (Hartrees/Bohr)
 Number     Number              X              Y              Z
 -------------------------------------------------------------------
      1        6           0.000000000    0.000000000    0.000447309
      2        8           0.000000000    0.000035057   -0.000223654
      3        8           0.000000000   -0.000035057   -0.000223654
 -------------------------------------------------------------------
 Cartesian Forces:  Max     0.000447309 RMS     0.000183359

 GradGradGradGradGradGradGradGradGradGradGradGradGradGradGradGradGradGrad
 Berny optimization.
 Using GEDIIS/GDIIS optimizer.
 Internal  Forces:  Max     0.000501512 RMS     0.000250776
 Search for a local minimum.
 Step number   2 out of a maximum of  100
 All quantities printed in internal units (Hartrees-Bohrs-Radians)
 Mixed Optimization -- En-DIIS/RFO-DIIS
 Swaping is turned off.
 Update second derivatives using D2CorX and points    1    2
 DE=  7.00D-07 DEPred=-7.52D-07 R=-9.31D-01
 Trust test=-9.31D-01 RLast= 5.78D-03 DXMaxT set to 1.50D-01
 The second derivative matrix:
                          R1        R2        A1        A2
           R1           1.11083
           R2          -0.00058   1.11083
           A1           0.00568   0.00568   0.13184
           A2           0.00000   0.00000   0.00000   0.04497
     Eigenvalues ---    0.04497   0.13220   1.111411000.00000
 En-DIIS/RFO-DIIS IScMMF=        0 using points:     2    1
 RFO step:  Lambda=-6.91866264D-07.
 DIIS coeffs:      0.34156      0.65844
 Iteration  1 RMS(Cart)=  0.00174395 RMS(Int)=  0.00000287
 Iteration  2 RMS(Cart)=  0.00000287 RMS(Int)=  0.00000000
 Iteration  3 RMS(Cart)=  0.00000000 RMS(Int)=  0.00000000
 ClnCor:  largest displacement from symmetrization is 9.16D-17 for atom     3.
 Variable       Old X    -DE/DX   Delta X   Delta X   Delta X     New X
                                  (DIIS)     (GDIIS)  (Total)
    R1        2.24480   0.00000   0.00002   0.00000   0.00002   2.24481
    R2        2.24480   0.00000   0.00002   0.00000   0.00002   2.24481
    A1        3.14540  -0.00050  -0.00381   0.00000  -0.00381   3.14159
    A2        3.14159   0.00000   0.00000   0.00000   0.00000   3.14159
         Item               Value     Threshold  Converged?
 Maximum Force            0.000502     0.000450     NO 
 RMS     Force            0.000251     0.000300     YES
 Maximum Displacement     0.002848     0.001800     NO 
 RMS     Displacement     0.001744     0.001200     NO 
 Predicted change in Energy=-9.541272D-07
 GradGradGradGradGradGradGradGradGradGradGradGradGradGradGradGradGradGrad

                          Input orientation:                          
 ---------------------------------------------------------------------
 Center     Atomic      Atomic             Coordinates (Angstroms)
 Number     Number       Type             X           Y           Z
 ---------------------------------------------------------------------
      1          6           0        0.000000    0.000000    0.000070
      2          8           0        0.000000    1.187905    0.000071
      3          8           0        0.000000   -1.187905    0.000071
 ---------------------------------------------------------------------
                    Distance matrix (angstroms):
                    1          2          3
     1  C    0.000000
     2  O    1.187905   0.000000
     3  O    1.187905   2.375810   0.000000
 Symm:  InNGrp=CINF InAxis=*.
 Stoichiometry    CO2
 Framework group  D*H[C*(),X(CO2)]
 NUMDOF-- UNRECOGNIZED SYMMETRIC SUBSPACE, ICHAR= X   "
 Deg. of freedom    -1
 Full point group                         NOp   0
 Omega: Change in point group or standard orientation.

 Old FWG=C02  [C2(C1),X(O2)]
 New FWG=D*H  [C*(),X(C1O2)]
 Largest Abelian subgroup         D2H     NOp   8
 Largest concise Abelian subgroup C2      NOp   2
                         Standard orientation:                         
 ---------------------------------------------------------------------
 Center     Atomic      Atomic             Coordinates (Angstroms)
 Number     Number       Type             X           Y           Z
 ---------------------------------------------------------------------
      1          6           0        0.000000    0.000000    0.000000
      2          8           0        0.000000    0.000000    1.187905
      3          8           0        0.000000    0.000000   -1.187905
 ---------------------------------------------------------------------
 Rotational constants (GHZ):      0.0000000     11.1954622     11.1954622
 Standard basis: 6-31G (6D, 7F)
 There are     8 symmetry adapted basis functions of AG  symmetry.
 There are     0 symmetry adapted basis functions of B1G symmetry.
 There are     2 symmetry adapted basis functions of B2G symmetry.
 There are     2 symmetry adapted basis functions of B3G symmetry.
 There are     0 symmetry adapted basis functions of AU  symmetry.
 There are     7 symmetry adapted basis functions of B1U symmetry.
 There are     4 symmetry adapted basis functions of B2U symmetry.
 There are     4 symmetry adapted basis functions of B3U symmetry.
 Integral buffers will be    262144 words long.
 Raffenetti 2 integral format.
 Two-electron integral symmetry is turned on.
    27 basis functions,    66 primitive gaussians,    27 cartesian basis functions
    11 alpha electrons       11 beta electrons
       nuclear repulsion energy        57.0202973748 Hartrees.
 NAtoms=    3 NActive=    3 NUniq=    2 SFac= 1.69D+00 NAtFMM=   80 NAOKFM=F Big=F
 One-electron integrals computed using PRISM.
 NBasis=    27 RedAO= T  NBF=     8     0     2     2     0     7     4     4
 NBsUse=    27 1.00D-06 NBFU=     8     0     2     2     0     7     4     4
 Initial guess read from the read-write file.
 B after Tr=     0.000000    0.000000    0.000000
         Rot=    1.000000    0.000000    0.000000    0.000000 Ang=   0.00 deg.
 Initial guess orbital symmetries:
       Occupied  (SGU) (SGG) (SGG) (?A) (?A) (?A) (?A) (?A) (?A)
                 (?A) (?A)
       Virtual   (?A) (?A) (?A) (?A) (?A) (?A) (?A) (?A) (?A) (?A)
                 (?A) (?A) (?A) (?A) (?A) (?A)
 Requested convergence on RMS density matrix=1.00D-08 within 128 cycles.
 Requested convergence on MAX density matrix=1.00D-06.
 Requested convergence on             energy=1.00D-06.
 No special actions if energy rises.
 Keep R1 ints in memory in canonical form, NReq=971300.
 An orbital has undefined symmetry, so N**3 symmetry is turned off.
 Density matrix breaks symmetry, PCut= 1.00D-04
 Density matrix has no symmetry -- integrals replicated.
 Density matrix breaks symmetry, PCut= 1.00D-04
 Density matrix has no symmetry -- integrals replicated.
 Density matrix breaks symmetry, PCut= 1.00D-04
 Density matrix has no symmetry -- integrals replicated.
 Density matrix breaks symmetry, PCut= 1.00D-04
 Density matrix has no symmetry -- integrals replicated.
 Density matrix breaks symmetry, PCut= 1.00D-04
 Density matrix has no symmetry -- integrals replicated.
 Density matrix breaks symmetry, PCut= 1.00D-04
 Density matrix has no symmetry -- integrals replicated.
 Density matrix breaks symmetry, PCut= 1.00D-04
 Density matrix has no symmetry -- integrals replicated.
 Density matrix breaks symmetry, PCut= 1.00D-04
 Density matrix has no symmetry -- integrals replicated.
 SCF Done:  E(RB3LYP) =  -188.500269670     A.U. after   11 cycles
             Convg  =    0.9249D-09             -V/T =  2.0061
 Calling FoFJK, ICntrl=      2127 FMM=F ISym2X=1 I1Cent= 0 IOpClX= 0 NMat=1 NMatS=1 NMatT=0.
 ***** Axes restored to original set *****
 -------------------------------------------------------------------
 Center     Atomic                   Forces (Hartrees/Bohr)
 Number     Number              X              Y              Z
 -------------------------------------------------------------------
      1        6           0.000000000    0.000000000    0.000000000
      2        8           0.000000000    0.000016144    0.000000000
      3        8           0.000000000   -0.000016144    0.000000000
 -------------------------------------------------------------------
 Cartesian Forces:  Max     0.000016144 RMS     0.000007610

 GradGradGradGradGradGradGradGradGradGradGradGradGradGradGradGradGradGrad
 Berny optimization.
 Using GEDIIS/GDIIS optimizer.
 Internal  Forces:  Max     0.000016144 RMS     0.000011416
 Search for a local minimum.
 Step number   3 out of a maximum of  100
 All quantities printed in internal units (Hartrees-Bohrs-Radians)
 Mixed Optimization -- En-DIIS/RFO-DIIS
 Swaping is turned off.
 Update second derivatives using D2CorX and points    1    2    3
 DE= -9.57D-07 DEPred=-9.54D-07 R= 1.00D+00
 Trust test= 1.00D+00 RLast= 3.81D-03 DXMaxT set to 1.50D-01
 The second derivative matrix:
                          R1        R2        A1        A2
           R1           1.11105
           R2          -0.00036   1.11105
           A1           0.01053   0.01053   0.13184
           A2           0.00000   0.00000   0.00000   0.04497
     Eigenvalues ---    0.04497   0.13161   1.11091   1.11141
 En-DIIS/RFO-DIIS IScMMF=        0 using points:     3    2    1
 RFO step:  Lambda= 0.00000000D+00.
 DIIS coeffs:      0.12533      0.29880      0.57587
 Iteration  1 RMS(Cart)=  0.00000052 RMS(Int)=  0.00000000
 ClnCor:  largest displacement from symmetrization is 8.55D-07 for atom     1.
 Variable       Old X    -DE/DX   Delta X   Delta X   Delta X     New X
                                  (DIIS)     (GDIIS)  (Total)
    R1        2.24481   0.00002   0.00000   0.00000   0.00000   2.24481
    R2        2.24481   0.00002   0.00000   0.00000   0.00000   2.24481
    A1        3.14159   0.00000   0.00000   0.00000   0.00000   3.14159
    A2        3.14159   0.00000   0.00000   0.00000   0.00000   3.14159
         Item               Value     Threshold  Converged?
 Maximum Force            0.000016     0.000450     YES
 RMS     Force            0.000011     0.000300     YES
 Maximum Displacement     0.000000     0.001800     YES
 RMS     Displacement     0.000000     0.001200     YES
 Predicted change in Energy=-2.467204D-14
 Optimization completed.
    -- Stationary point found.
                           ----------------------------
                           !   Optimized Parameters   !
                           ! (Angstroms and Degrees)  !
 --------------------------                            --------------------------
 ! Name  Definition              Value          Derivative Info.                !
 --------------------------------------------------------------------------------
 ! R1    R(1,2)                  1.1879         -DE/DX =    0.0                 !
 ! R2    R(1,3)                  1.1879         -DE/DX =    0.0                 !
 ! A1    L(2,1,3,-1,-1)        180.0            -DE/DX =    0.0                 !
 ! A2    L(2,1,3,-3,-2)        180.0            -DE/DX =    0.0                 !
 --------------------------------------------------------------------------------
 GradGradGradGradGradGradGradGradGradGradGradGradGradGradGradGradGradGrad

                          Input orientation:                          
 ---------------------------------------------------------------------
 Center     Atomic      Atomic             Coordinates (Angstroms)
 Number     Number       Type             X           Y           Z
 ---------------------------------------------------------------------
      1          6           0        0.000000    0.000000    0.000071
      2          8           0        0.000000    1.187905    0.000071
      3          8           0        0.000000   -1.187905    0.000071
 ---------------------------------------------------------------------
                    Distance matrix (angstroms):
                    1          2          3
     1  C    0.000000
     2  O    1.187905   0.000000
     3  O    1.187905   2.375810   0.000000
 Symm:  InNGrp=CINF InAxis=*.
 Stoichiometry    CO2
 Framework group  D*H[O(C),C*(O.O)]
 Deg. of freedom     1
 Full point group                 D*H     NOp   8
 Omega: Change in point group or standard orientation.

 Old FWG=D*H  [C*(),X(C1O2)]
 New FWG=D*H  [O(C1),C*(O1.O1)]
 Largest Abelian subgroup         D2H     NOp   8
 Largest concise Abelian subgroup C2      NOp   2
                         Standard orientation:                         
 ---------------------------------------------------------------------
 Center     Atomic      Atomic             Coordinates (Angstroms)
 Number     Number       Type             X           Y           Z
 ---------------------------------------------------------------------
      1          6           0        0.000000    0.000000    0.000000
      2          8           0        0.000000    0.000000    1.187905
      3          8           0        0.000000    0.000000   -1.187905
 ---------------------------------------------------------------------
 Rotational constants (GHZ):      0.0000000     11.1954622     11.1954622

 **********************************************************************

            Population analysis using the SCF density.

 **********************************************************************

 Orbital symmetries:
       Occupied  (SGU) (SGG) (SGG) (SGG) (SGU) (SGG) (PIU) (PIU)
                 (SGU) (PIG) (PIG)
       Virtual   (PIU) (PIU) (SGG) (SGU) (PIU) (PIU) (SGG) (SGU)
                 (SGG) (PIG) (PIG) (SGU) (PIU) (PIU) (SGG) (SGU)
 The electronic state is 1-SGG.
 Alpha  occ. eigenvalues --  -19.25218 -19.25207 -10.40492  -1.18393  -1.14827
 Alpha  occ. eigenvalues --   -0.56333  -0.52569  -0.52569  -0.51565  -0.37293
 Alpha  occ. eigenvalues --   -0.37293
 Alpha virt. eigenvalues --   -0.00351  -0.00351   0.05630   0.37143   0.46625
 Alpha virt. eigenvalues --    0.46625   0.60864   0.72386   0.86707   0.87366
 Alpha virt. eigenvalues --    0.87366   1.00061   1.04032   1.04032   1.64009
 Alpha virt. eigenvalues --    1.96542
          Condensed to atoms (all electrons):
              1          2          3
     1  C    4.480208   0.465362   0.465362
     2  O    0.465362   7.847534  -0.018362
     3  O    0.465362  -0.018362   7.847534
 Mulliken atomic charges:
              1
     1  C    0.589068
     2  O   -0.294534
     3  O   -0.294534
 Sum of Mulliken atomic charges =   0.00000
 Mulliken charges with hydrogens summed into heavy atoms:
              1
     1  C    0.589068
     2  O   -0.294534
     3  O   -0.294534
 Sum of Mulliken charges with hydrogens summed into heavy atoms =   0.00000
 Electronic spatial extent (au):  <R**2>=            117.6143
 Charge=              0.0000 electrons
 Dipole moment (field-independent basis, Debye):
    X=              0.0000    Y=              0.0000    Z=              0.0000  Tot=              0.0000
 Quadrupole moment (field-independent basis, Debye-Ang):
   XX=            -14.6619   YY=            -14.6619   ZZ=            -20.4253
   XY=              0.0000   XZ=              0.0000   YZ=              0.0000
 Traceless Quadrupole moment (field-independent basis, Debye-Ang):
   XX=              1.9211   YY=              1.9211   ZZ=             -3.8423
   XY=              0.0000   XZ=              0.0000   YZ=              0.0000
 Octapole moment (field-independent basis, Debye-Ang**2):
  XXX=              0.0000  YYY=              0.0000  ZZZ=              0.0000  XYY=              0.0000
  XXY=              0.0000  XXZ=              0.0000  XZZ=              0.0000  YZZ=              0.0000
  YYZ=              0.0000  XYZ=              0.0000
 Hexadecapole moment (field-independent basis, Debye-Ang**3):
 XXXX=            -10.7252 YYYY=            -10.7252 ZZZZ=           -107.8975 XXXY=              0.0000
 XXXZ=              0.0000 YYYX=              0.0000 YYYZ=              0.0000 ZZZX=              0.0000
 ZZZY=              0.0000 XXYY=             -3.5751 XXZZ=            -18.8546 YYZZ=            -18.8546
 XXYZ=              0.0000 YYXZ=              0.0000 ZZXY=              0.0000
 N-N= 5.702029737478D+01 E-N=-5.570892532710D+02  KE= 1.873580398877D+02
 Symmetry AG   KE= 1.011307264512D+02
 Symmetry B1G  KE= 0.000000000000D+00
 Symmetry B2G  KE= 4.930847925644D+00
 Symmetry B3G  KE= 4.930847925955D+00
 Symmetry AU   KE= 0.000000000000D+00
 Symmetry B1U  KE= 6.916245296684D+01
 Symmetry B2U  KE= 3.601582309475D+00
 Symmetry B3U  KE= 3.601582308610D+00
 1|1|UNPC-DESKTOP-8TQV1GH|FOpt|RB3LYP|6-31G|C1O2|JUANV|11-Feb-2022|0||#
  opt=maxcycles=100 freq=noraman b3lyp/6-31g symmetry=(PG=Cinfv)||Title
  Card Required||0,1|C,0.,0.,0.0000707024|O,0.,1.1879047606,0.000070702
 4|O,0.,-1.1879047606,0.0000707024||Version=IA32W-G09RevA.02|State=1-SG
 G|HF=-188.5002697|RMSD=9.249e-010|RMSF=7.610e-006|Dipole=0.,0.,0.|Quad
 rupole=1.4283114,-2.8566228,1.4283114,0.,0.,0.|PG=D*H [O(C1),C*(O1.O1)
 ]||@


 MOST BUREAUCRACIES FUNCTION LIKE A SEPTIC TANK.
 THE LARGE CHUNKS RISE TO THE TOP.
 Job cpu time:  0 days  0 hours  0 minutes  3.0 seconds.
 File lengths (MBytes):  RWF=      5 Int=      0 D2E=      0 Chk=      1 Scr=      1
 Normal termination of Gaussian 09 at Fri Feb 11 13:13:44 2022.
 Link1:  Proceeding to internal job step number  2.
 -----------------------------------------------------------------
 #N Geom=AllCheck Guess=TCheck SCRF=Check GenChk RB3LYP/6-31G Freq
 -----------------------------------------------------------------
 1/6=100,10=4,29=7,30=1,38=1,40=1/1,3;
 2/12=2,20=538976374,40=1/2;
 3/5=1,6=6,11=2,14=-4,16=1,25=1,30=1,70=2,71=2,74=-5,116=1/1,2,3;
 4/5=101/1;
 5/5=2,98=1/2;
 8/6=4,10=90,11=11/1;
 11/6=1,8=1,9=11,15=111,16=1/1,2,10;
 10/6=1/2;
 6/7=2,8=2,9=2,10=2,18=1,28=1/1;
 7/8=1,10=1,25=1/1,2,3,16;
 1/6=100,10=4,30=1/3;
 99//99;
 -------------------
 Title Card Required
 -------------------
 Redundant internal coordinates taken from checkpoint file:
 C:/G09W/Scratch\gxx.chk
 Charge =  0 Multiplicity = 1
 C,0,0.,0.,0.0000707024
 O,0,0.,1.1879047606,0.0000707024
 O,0,0.,-1.1879047606,0.0000707024
 Recover connectivity data from disk.

 GradGradGradGradGradGradGradGradGradGradGradGradGradGradGradGradGradGrad
 Berny optimization.
 Initialization pass.
                           ----------------------------
                           !    Initial Parameters    !
                           ! (Angstroms and Degrees)  !
 --------------------------                            --------------------------
 ! Name  Definition              Value          Derivative Info.                !
 --------------------------------------------------------------------------------
 ! R1    R(1,2)                  1.1879         calculate D2E/DX2 analytically  !
 ! R2    R(1,3)                  1.1879         calculate D2E/DX2 analytically  !
 ! A1    L(2,1,3,-1,-1)        180.0            calculate D2E/DX2 analytically  !
 ! A2    L(2,1,3,-3,-2)        180.0            calculate D2E/DX2 analytically  !
 --------------------------------------------------------------------------------
 Trust Radius=3.00D-01 FncErr=1.00D-07 GrdErr=1.00D-07
 Number of steps in this run=   2 maximum allowed number of steps=   2.
 GradGradGradGradGradGradGradGradGradGradGradGradGradGradGradGradGradGrad

                          Input orientation:                          
 ---------------------------------------------------------------------
 Center     Atomic      Atomic             Coordinates (Angstroms)
 Number     Number       Type             X           Y           Z
 ---------------------------------------------------------------------
      1          6           0        0.000000    0.000000    0.000071
      2          8           0        0.000000    1.187905    0.000071
      3          8           0        0.000000   -1.187905    0.000071
 ---------------------------------------------------------------------
                    Distance matrix (angstroms):
                    1          2          3
     1  C    0.000000
     2  O    1.187905   0.000000
     3  O    1.187905   2.375810   0.000000
 Stoichiometry    CO2
 Framework group  D*H[O(C),C*(O.O)]
 Deg. of freedom     1
 Full point group                 D*H     NOp   8
 Largest Abelian subgroup         D2H     NOp   8
 Largest concise Abelian subgroup C2      NOp   2
                         Standard orientation:                         
 ---------------------------------------------------------------------
 Center     Atomic      Atomic             Coordinates (Angstroms)
 Number     Number       Type             X           Y           Z
 ---------------------------------------------------------------------
      1          6           0        0.000000    0.000000    0.000000
      2          8           0        0.000000    0.000000    1.187905
      3          8           0        0.000000    0.000000   -1.187905
 ---------------------------------------------------------------------
 Rotational constants (GHZ):      0.0000000     11.1954622     11.1954622
 Standard basis: 6-31G (6D, 7F)
 There are     8 symmetry adapted basis functions of AG  symmetry.
 There are     0 symmetry adapted basis functions of B1G symmetry.
 There are     2 symmetry adapted basis functions of B2G symmetry.
 There are     2 symmetry adapted basis functions of B3G symmetry.
 There are     0 symmetry adapted basis functions of AU  symmetry.
 There are     7 symmetry adapted basis functions of B1U symmetry.
 There are     4 symmetry adapted basis functions of B2U symmetry.
 There are     4 symmetry adapted basis functions of B3U symmetry.
 Integral buffers will be    262144 words long.
 Raffenetti 2 integral format.
 Two-electron integral symmetry is turned on.
    27 basis functions,    66 primitive gaussians,    27 cartesian basis functions
    11 alpha electrons       11 beta electrons
       nuclear repulsion energy        57.0202973748 Hartrees.
 NAtoms=    3 NActive=    3 NUniq=    2 SFac= 1.69D+00 NAtFMM=   80 NAOKFM=F Big=F
 One-electron integrals computed using PRISM.
 NBasis=    27 RedAO= T  NBF=     8     0     2     2     0     7     4     4
 NBsUse=    27 1.00D-06 NBFU=     8     0     2     2     0     7     4     4
 Initial guess read from the checkpoint file:  C:/G09W/Scratch\gxx.chk
 B after Tr=     0.000000    0.000000    0.000000
         Rot=    1.000000    0.000000    0.000000    0.000000 Ang=   0.00 deg.
 Initial guess orbital symmetries:
       Occupied  (SGU) (SGG) (SGG) (SGG) (SGU) (SGG) (PIU) (PIU)
                 (SGU) (PIG) (PIG)
       Virtual   (PIU) (PIU) (SGG) (SGU) (PIU) (PIU) (SGG) (SGU)
                 (SGG) (PIG) (PIG) (SGU) (PIU) (PIU) (SGG) (SGU)
 Requested convergence on RMS density matrix=1.00D-08 within 128 cycles.
 Requested convergence on MAX density matrix=1.00D-06.
 Requested convergence on             energy=1.00D-06.
 No special actions if energy rises.
 Keep R1 ints in memory in canonical form, NReq=971300.
 SCF Done:  E(RB3LYP) =  -188.500269670     A.U. after    1 cycles
             Convg  =    0.8421D-10             -V/T =  2.0061
 Range of M.O.s used for correlation:     1    27
 NBasis=    27 NAE=    11 NBE=    11 NFC=     0 NFV=     0
 NROrb=     27 NOA=    11 NOB=    11 NVA=    16 NVB=    16
 Symmetrizing basis deriv contribution to polar:
 IMax=3 JMax=2 DiffMx= 0.00D+00
 G2DrvN: will do     4 centers at a time, making    1 passes doing MaxLOS=1.
 Calling FoFCou, ICntrl=  3107 FMM=F I1Cent=   0 AccDes= 0.00D+00.
 FoFDir/FoFCou used for L=0 through L=1.
 End of G2Drv Frequency-dependent properties file   721 does not exist.
 End of G2Drv Frequency-dependent properties file   722 does not exist.
          IDoAtm=111
          Differentiating once with respect to electric field.
                with respect to dipole field.
          Differentiating once with respect to nuclear coordinates.
          Keep R1 ints in memory in canonical form, NReq=872455.
          There are     9 degrees of freedom in the 1st order CPHF.  IDoFFX=4.
      9 vectors produced by pass  0 Test12= 1.96D-15 1.11D-08 XBig12= 3.53D+01 4.00D+00.
 AX will form     9 AO Fock derivatives at one time.
      9 vectors produced by pass  1 Test12= 1.96D-15 1.11D-08 XBig12= 1.43D+01 1.65D+00.
      9 vectors produced by pass  2 Test12= 1.96D-15 1.11D-08 XBig12= 4.03D-02 8.92D-02.
      9 vectors produced by pass  3 Test12= 1.96D-15 1.11D-08 XBig12= 1.33D-04 7.24D-03.
      9 vectors produced by pass  4 Test12= 1.96D-15 1.11D-08 XBig12= 2.28D-07 1.70D-04.
      4 vectors produced by pass  5 Test12= 1.96D-15 1.11D-08 XBig12= 2.33D-10 7.14D-06.
      2 vectors produced by pass  6 Test12= 1.96D-15 1.11D-08 XBig12= 2.39D-13 2.62D-07.
      1 vectors produced by pass  7 Test12= 1.96D-15 1.11D-08 XBig12= 4.69D-16 1.34D-08.
 Inverted reduced A of dimension    52 with in-core refinement.
 Isotropic polarizability for W=    0.000000       12.05 Bohr**3.
 End of Minotr Frequency-dependent properties file   721 does not exist.
 End of Minotr Frequency-dependent properties file   722 does not exist.

 **********************************************************************

            Population analysis using the SCF density.

 **********************************************************************

 Orbital symmetries:
       Occupied  (SGU) (SGG) (SGG) (SGG) (SGU) (SGG) (PIU) (PIU)
                 (SGU) (PIG) (PIG)
       Virtual   (PIU) (PIU) (SGG) (SGU) (PIU) (PIU) (SGG) (SGU)
                 (SGG) (PIG) (PIG) (SGU) (PIU) (PIU) (SGG) (SGU)
 The electronic state is 1-SGG.
 Alpha  occ. eigenvalues --  -19.25218 -19.25207 -10.40492  -1.18393  -1.14827
 Alpha  occ. eigenvalues --   -0.56333  -0.52569  -0.52569  -0.51565  -0.37293
 Alpha  occ. eigenvalues --   -0.37293
 Alpha virt. eigenvalues --   -0.00351  -0.00351   0.05630   0.37143   0.46625
 Alpha virt. eigenvalues --    0.46625   0.60864   0.72386   0.86707   0.87366
 Alpha virt. eigenvalues --    0.87366   1.00061   1.04032   1.04032   1.64009
 Alpha virt. eigenvalues --    1.96542
          Condensed to atoms (all electrons):
              1          2          3
     1  C    4.480208   0.465362   0.465362
     2  O    0.465362   7.847534  -0.018362
     3  O    0.465362  -0.018362   7.847534
 Mulliken atomic charges:
              1
     1  C    0.589068
     2  O   -0.294534
     3  O   -0.294534
 Sum of Mulliken atomic charges =   0.00000
 Mulliken charges with hydrogens summed into heavy atoms:
              1
     1  C    0.589068
     2  O   -0.294534
     3  O   -0.294534
 Sum of Mulliken charges with hydrogens summed into heavy atoms =   0.00000
 APT atomic charges:
              1
     1  C    0.990166
     2  O   -0.495083
     3  O   -0.495083
 Sum of APT charges=   0.00000
 APT Atomic charges with hydrogens summed into heavy atoms:
              1
     1  C    0.990166
     2  O   -0.495083
     3  O   -0.495083
 Sum of APT charges=   0.00000
 Electronic spatial extent (au):  <R**2>=            117.6143
 Charge=              0.0000 electrons
 Dipole moment (field-independent basis, Debye):
    X=              0.0000    Y=              0.0000    Z=              0.0000  Tot=              0.0000
 Quadrupole moment (field-independent basis, Debye-Ang):
   XX=            -14.6619   YY=            -14.6619   ZZ=            -20.4253
   XY=              0.0000   XZ=              0.0000   YZ=              0.0000
 Traceless Quadrupole moment (field-independent basis, Debye-Ang):
   XX=              1.9211   YY=              1.9211   ZZ=             -3.8423
   XY=              0.0000   XZ=              0.0000   YZ=              0.0000
 Octapole moment (field-independent basis, Debye-Ang**2):
  XXX=              0.0000  YYY=              0.0000  ZZZ=              0.0000  XYY=              0.0000
  XXY=              0.0000  XXZ=              0.0000  XZZ=              0.0000  YZZ=              0.0000
  YYZ=              0.0000  XYZ=              0.0000
 Hexadecapole moment (field-independent basis, Debye-Ang**3):
 XXXX=            -10.7252 YYYY=            -10.7252 ZZZZ=           -107.8975 XXXY=              0.0000
 XXXZ=              0.0000 YYYX=              0.0000 YYYZ=              0.0000 ZZZX=              0.0000
 ZZZY=              0.0000 XXYY=             -3.5751 XXZZ=            -18.8546 YYZZ=            -18.8546
 XXYZ=              0.0000 YYXZ=              0.0000 ZZXY=              0.0000
 N-N= 5.702029737478D+01 E-N=-5.570892532855D+02  KE= 1.873580398975D+02
 Symmetry AG   KE= 1.011307264516D+02
 Symmetry B1G  KE= 0.000000000000D+00
 Symmetry B2G  KE= 4.930847927092D+00
 Symmetry B3G  KE= 4.930847927139D+00
 Symmetry AU   KE= 0.000000000000D+00
 Symmetry B1U  KE= 6.916245296809D+01
 Symmetry B2U  KE= 3.601582311873D+00
 Symmetry B3U  KE= 3.601582311716D+00
  Exact polarizability:   6.248   0.000   6.248   0.000   0.000  23.669
 Approx polarizability:   6.834   0.000   6.834   0.000   0.000  57.039
 Calling FoFJK, ICntrl=    100127 FMM=F ISym2X=1 I1Cent= 0 IOpClX= 0 NMat=1 NMatS=1 NMatT=0.
 Full mass-weighted force constant matrix:
 Low frequencies ---   -0.3472   -0.3472   -0.0009   -0.0005    0.0027  563.0465
 Low frequencies ---  563.0465 1282.3804 2283.0038
 Diagonal vibrational polarizability:
        2.0989873       2.0989873       2.3759527
 Harmonic frequencies (cm**-1), IR intensities (KM/Mole), Raman scattering
 activities (A**4/AMU), depolarization ratios for plane and unpolarized
 incident light, reduced masses (AMU), force constants (mDyne/A),
 and normal coordinates:
                     1                      2                      3
                    PIU                    PIU                    SGG
 Frequencies --   563.0465               563.0465              1282.3804
 Red. masses --    12.8774                12.8774                15.9949
 Frc consts  --     2.4053                 2.4053                15.4976
 IR Inten    --    24.7267                24.7267                 0.0000
  Atom  AN      X      Y      Z        X      Y      Z        X      Y      Z
     1   6     0.88   0.00   0.00     0.00   0.88   0.00     0.00   0.00   0.00
     2   8    -0.33   0.00   0.00     0.00  -0.33   0.00     0.00   0.00   0.71
     3   8    -0.33   0.00   0.00     0.00  -0.33   0.00     0.00   0.00  -0.71
                     4
                    SGU
 Frequencies --  2283.0038
 Red. masses --    12.8774
 Frc consts  --    39.5449
 IR Inten    --   460.1696
  Atom  AN      X      Y      Z
     1   6     0.00   0.00   0.88
     2   8     0.00   0.00  -0.33
     3   8     0.00   0.00  -0.33

 -------------------
 - Thermochemistry -
 -------------------
 Temperature   298.150 Kelvin.  Pressure   1.00000 Atm.
 Atom     1 has atomic number  6 and mass  12.00000
 Atom     2 has atomic number  8 and mass  15.99491
 Atom     3 has atomic number  8 and mass  15.99491
 Molecular mass:    43.98983 amu.
 Principal axes and moments of inertia in atomic units:
                           1         2         3
     Eigenvalues --     0.00000 161.20292 161.20292
           X            0.00000   1.00000   0.00000
           Y            0.00000   0.00000   1.00000
           Z            1.00000   0.00000   0.00000
 This molecule is a prolate symmetric top.
 Rotational symmetry number  2.
 Rotational temperature (Kelvin)      0.53730
 Rotational constant (GHZ):          11.195462
 Zero-point vibrational energy      28061.3 (Joules/Mol)
                                    6.70680 (Kcal/Mol)
 Warning -- explicit consideration of   2 degrees of freedom as
           vibrations may cause significant error
 Vibrational temperatures:    810.10   810.10  1845.06  3284.73
          (Kelvin)
 
 Zero-point correction=                           0.010688 (Hartree/Particle)
 Thermal correction to Energy=                    0.013424
 Thermal correction to Enthalpy=                  0.014368
 Thermal correction to Gibbs Free Energy=        -0.010103
 Sum of electronic and zero-point Energies=           -188.489582
 Sum of electronic and thermal Energies=              -188.486846
 Sum of electronic and thermal Enthalpies=            -188.485902
 Sum of electronic and thermal Free Energies=         -188.510372
 
                     E (Thermal)             CV                S
                      KCal/Mol        Cal/Mol-Kelvin    Cal/Mol-Kelvin
 Total                    8.423              7.351             51.502
 Electronic               0.000              0.000              0.000
 Translational            0.889              2.981             37.270
 Rotational               0.592              1.987             13.167
 Vibrational              6.942              2.383              1.065
 Vibration     1          0.919              1.111              0.518
 Vibration     2          0.919              1.111              0.518
                       Q            Log10(Q)             Ln(Q)
 Total Bot       0.443433D+05          4.646828         10.699716
 Total V=0       0.365547D+10          9.562943         22.019490
 Vib (Bot)       0.139365D-04         -4.855846        -11.181000
 Vib (Bot)    1  0.275219D+00         -0.560322         -1.290189
 Vib (Bot)    2  0.275219D+00         -0.560322         -1.290189
 Vib (V=0)       0.114886D+01          0.060269          0.138774
 Vib (V=0)    1  0.107074D+01          0.029684          0.068351
 Vib (V=0)    2  0.107074D+01          0.029684          0.068351
 Electronic      0.100000D+01          0.000000          0.000000
 Translational   0.114679D+08          7.059484         16.255062
 Rotational      0.277454D+03          2.443191          5.625654
 ***** Axes restored to original set *****
 -------------------------------------------------------------------
 Center     Atomic                   Forces (Hartrees/Bohr)
 Number     Number              X              Y              Z
 -------------------------------------------------------------------
      1        6           0.000000000    0.000000000    0.000000000
      2        8           0.000000000    0.000016143    0.000000000
      3        8           0.000000000   -0.000016143    0.000000000
 -------------------------------------------------------------------
 Cartesian Forces:  Max     0.000016143 RMS     0.000007610

 GradGradGradGradGradGradGradGradGradGradGradGradGradGradGradGradGradGrad
 Berny optimization.
 Internal  Forces:  Max     0.000016143 RMS     0.000011415
 Search for a local minimum.
 Step number   1 out of a maximum of    2
 All quantities printed in internal units (Hartrees-Bohrs-Radians)
 Second derivative matrix not updated -- analytic derivatives used.
 The second derivative matrix:
                          R1        R2        A1        A2
           R1           0.92802
           R2           0.06740   0.92802
           A1           0.00000   0.00000   0.13191
           A2           0.00000   0.00000   0.00000   0.13191
     Eigenvalues ---    0.13191   0.13191   0.86063   0.99542
 Angle between quadratic step and forces=   0.00 degrees.
 Linear search not attempted -- first point.
 Iteration  1 RMS(Cart)=  0.00001147 RMS(Int)=  0.00000000
 Iteration  2 RMS(Cart)=  0.00000000 RMS(Int)=  0.00000000
 ClnCor:  largest displacement from symmetrization is 5.20D-14 for atom     1.
 Variable       Old X    -DE/DX   Delta X   Delta X   Delta X     New X
                                 (Linear)    (Quad)   (Total)
    R1        2.24481   0.00002   0.00000   0.00002   0.00002   2.24483
    R2        2.24481   0.00002   0.00000   0.00002   0.00002   2.24483
    A1        3.14159   0.00000   0.00000   0.00000   0.00000   3.14159
    A2        3.14159   0.00000   0.00000   0.00000   0.00000   3.14159
         Item               Value     Threshold  Converged?
 Maximum Force            0.000016     0.000450     YES
 RMS     Force            0.000011     0.000300     YES
 Maximum Displacement     0.000016     0.001800     YES
 RMS     Displacement     0.000011     0.001200     YES
 Predicted change in Energy=-2.618041D-10
 Optimization completed.
    -- Stationary point found.
                           ----------------------------
                           !   Optimized Parameters   !
                           ! (Angstroms and Degrees)  !
 --------------------------                            --------------------------
 ! Name  Definition              Value          Derivative Info.                !
 --------------------------------------------------------------------------------
 ! R1    R(1,2)                  1.1879         -DE/DX =    0.0                 !
 ! R2    R(1,3)                  1.1879         -DE/DX =    0.0                 !
 ! A1    L(2,1,3,-1,-1)        180.0            -DE/DX =    0.0                 !
 ! A2    L(2,1,3,-3,-2)        180.0            -DE/DX =    0.0                 !
 --------------------------------------------------------------------------------
 GradGradGradGradGradGradGradGradGradGradGradGradGradGradGradGradGradGrad

 1|1|UNPC-DESKTOP-8TQV1GH|Freq|RB3LYP|6-31G|C1O2|JUANV|11-Feb-2022|0||#
 N Geom=AllCheck Guess=TCheck SCRF=Check GenChk RB3LYP/6-31G Freq||Titl
 e Card Required||0,1|C,0.,0.,0.0000707024|O,0.,1.1879047606,0.00007070
 24|O,0.,-1.1879047606,0.0000707024||Version=IA32W-G09RevA.02|State=1-S
 GG|HF=-188.5002697|RMSD=8.421e-011|RMSF=7.610e-006|ZeroPoint=0.010688|
 Thermal=0.0134236|Dipole=0.,0.,0.|DipoleDeriv=0.4704651,0.,0.,0.,2.029
 5688,0.,0.,0.,0.4704651,-0.2352326,0.,0.,0.,-1.0147844,0.,0.,0.,-0.235
 2326,-0.2352326,0.,0.,0.,-1.0147844,0.,0.,0.,-0.2352326|Polar=6.247771
 ,0.,23.6693338,0.,0.,6.247771|PG=D*H [O(C1),C*(O1.O1)]|NImag=0||0.1046
 9379,0.,1.72125650,0.,0.,0.10469379,-0.05234689,0.,0.,0.02617341,0.,-0
 .86062825,0.,0.,0.92802499,0.,0.,-0.05234689,0.,0.,0.02617341,-0.05234
 689,0.,0.,0.02617348,0.,0.,0.02617341,0.,-0.86062825,0.,0.,-0.06739674
 ,0.,0.,0.92802499,0.,0.,-0.05234689,0.,0.,0.02617348,0.,0.,0.02617341|
 |0.,0.,0.,0.,-0.00001614,0.,0.,0.00001614,0.|||@


 MOST BUREAUCRACIES FUNCTION LIKE A SEPTIC TANK.
 THE LARGE CHUNKS RISE TO THE TOP.
 Job cpu time:  0 days  0 hours  0 minutes  1.0 seconds.
 File lengths (MBytes):  RWF=      5 Int=      0 D2E=      0 Chk=      1 Scr=      1
 Normal termination of Gaussian 09 at Fri Feb 11 13:13:45 2022.
