Job Start Time: Wed Nov 24 09:38:48 MST 2021
SLURM Job ID: 9187674
SLURM Job Name: a-Ar_def2TZVP
 Entering Gaussian System, Link 0=/projects/rpaton@colostate.edu/g16/g16
 Initial command:
 /projects/rpaton@colostate.edu/g16/l1.exe "/gpfs/summit/scratch/jvalegre@colostate.edu/9187674/Gau-254301.inp" -scrdir="/gpfs/summit/scratch/jvalegre@colostate.edu/9187674/"
 Entering Link 1 = /projects/rpaton@colostate.edu/g16/l1.exe PID=    254305.
  
 Copyright (c) 1988-2019, Gaussian, Inc.  All Rights Reserved.
  
 This is part of the Gaussian(R) 16 program.  It is based on
 the Gaussian(R) 09 system (copyright 2009, Gaussian, Inc.),
 the Gaussian(R) 03 system (copyright 2003, Gaussian, Inc.),
 the Gaussian(R) 98 system (copyright 1998, Gaussian, Inc.),
 the Gaussian(R) 94 system (copyright 1995, Gaussian, Inc.),
 the Gaussian 92(TM) system (copyright 1992, Gaussian, Inc.),
 the Gaussian 90(TM) system (copyright 1990, Gaussian, Inc.),
 the Gaussian 88(TM) system (copyright 1988, Gaussian, Inc.),
 the Gaussian 86(TM) system (copyright 1986, Carnegie Mellon
 University), and the Gaussian 82(TM) system (copyright 1983,
 Carnegie Mellon University). Gaussian is a federally registered
 trademark of Gaussian, Inc.
  
 This software contains proprietary and confidential information,
 including trade secrets, belonging to Gaussian, Inc.
  
 This software is provided under written license and may be
 used, copied, transmitted, or stored only in accord with that
 written license.
  
 The following legend is applicable only to US Government
 contracts under FAR:
  
                    RESTRICTED RIGHTS LEGEND
  
 Use, reproduction and disclosure by the US Government is
 subject to restrictions as set forth in subparagraphs (a)
 and (c) of the Commercial Computer Software - Restricted
 Rights clause in FAR 52.227-19.
  
 Gaussian, Inc.
 340 Quinnipiac St., Bldg. 40, Wallingford CT 06492
  
  
 ---------------------------------------------------------------
 Warning -- This program may not be used in any manner that
 competes with the business of Gaussian, Inc. or will provide
 assistance to any competitor of Gaussian, Inc.  The licensee
 of this program is prohibited from giving any competitor of
 Gaussian, Inc. access to this program.  By using this program,
 the user acknowledges that Gaussian, Inc. is engaged in the
 business of creating and licensing software in the field of
 computational chemistry and represents and warrants to the
 licensee that it is not a competitor of Gaussian, Inc. and that
 it will not use this program in any manner prohibited above.
 ---------------------------------------------------------------
  

 Cite this work as:
 Gaussian 16, Revision C.01,
 M. J. Frisch, G. W. Trucks, H. B. Schlegel, G. E. Scuseria, 
 M. A. Robb, J. R. Cheeseman, G. Scalmani, V. Barone, 
 G. A. Petersson, H. Nakatsuji, X. Li, M. Caricato, A. V. Marenich, 
 J. Bloino, B. G. Janesko, R. Gomperts, B. Mennucci, H. P. Hratchian, 
 J. V. Ortiz, A. F. Izmaylov, J. L. Sonnenberg, D. Williams-Young, 
 F. Ding, F. Lipparini, F. Egidi, J. Goings, B. Peng, A. Petrone, 
 T. Henderson, D. Ranasinghe, V. G. Zakrzewski, J. Gao, N. Rega, 
 G. Zheng, W. Liang, M. Hada, M. Ehara, K. Toyota, R. Fukuda, 
 J. Hasegawa, M. Ishida, T. Nakajima, Y. Honda, O. Kitao, H. Nakai, 
 T. Vreven, K. Throssell, J. A. Montgomery, Jr., J. E. Peralta, 
 F. Ogliaro, M. J. Bearpark, J. J. Heyd, E. N. Brothers, K. N. Kudin, 
 V. N. Staroverov, T. A. Keith, R. Kobayashi, J. Normand, 
 K. Raghavachari, A. P. Rendell, J. C. Burant, S. S. Iyengar, 
 J. Tomasi, M. Cossi, J. M. Millam, M. Klene, C. Adamo, R. Cammi, 
 J. W. Ochterski, R. L. Martin, K. Morokuma, O. Farkas, 
 J. B. Foresman, and D. J. Fox, Gaussian, Inc., Wallingford CT, 2019.
 
 ******************************************
 Gaussian 16:  ES64L-G16RevC.01  3-Jul-2019
                24-Nov-2021 
 ******************************************
 %mem=24GB
 %nprocshared=12
 Will use up to   12 processors via shared memory.
 -------------------------------------------------
 # M062X/Def2TZVP freq=noraman opt=(maxcycles=100)
 -------------------------------------------------
 1/6=100,18=20,19=15,26=3,38=1/1,3;
 2/9=110,12=2,17=6,18=5,40=1/2;
 3/5=44,7=101,11=2,25=1,30=1,71=1,74=-55/1,2,3;
 4//1;
 5/5=2,38=5/2;
 6/7=2,8=2,9=2,10=2,28=1/1;
 7//1,2,3,16;
 1/6=100,18=20,19=15,26=3/3(2);
 2/9=110/2;
 99//99;
 2/9=110/2;
 3/5=44,7=101,11=2,25=1,30=1,71=1,74=-55/1,2,3;
 4/5=5,16=3,69=1/1;
 5/5=2,38=5/2;
 7//1,2,3,16;
 1/6=100,18=20,19=15,26=3/3(-5);
 2/9=110/2;
 6/7=2,8=2,9=2,10=2,19=2,28=1/1;
 99/9=1/99;
 -------------------
 Title Card Required
 -------------------
 Symbolic Z-matrix:
 Charge =  0 Multiplicity = 1
 C                     2.41153   0.0029   -0.0058 
 C                     0.90764   0.00768   0.00635 
 C                     0.18909   1.19841  -0.00317 
 C                    -1.20015   1.19494  -0.0096 
 C                    -1.89329  -0.0056   -0.00651 
 C                    -1.18732  -1.20213   0.00611 
 C                     0.19861  -1.19239   0.01253 
 H                     2.79114  -0.35883  -0.9779 
 H                     2.80979   1.01653   0.16462 
 H                     2.80944  -0.66857   0.78058 
 H                     0.72395   2.14091  -0.00317 
 H                    -1.73996   2.13328  -0.01597 
 H                    -2.97539  -0.01116  -0.00669 
 H                    -1.71896  -2.14515   0.0123 
 H                     0.74338  -2.12984   0.022 
 

 GradGradGradGradGradGradGradGradGradGradGradGradGradGradGradGradGradGrad
 Berny optimization.
 Initialization pass.
                           ----------------------------
                           !    Initial Parameters    !
                           ! (Angstroms and Degrees)  !
 --------------------------                            --------------------------
 ! Name  Definition              Value          Derivative Info.                !
 --------------------------------------------------------------------------------
 ! R1    R(1,2)                  1.5039         estimate D2E/DX2                !
 ! R2    R(1,8)                  1.1045         estimate D2E/DX2                !
 ! R3    R(1,9)                  1.1023         estimate D2E/DX2                !
 ! R4    R(1,10)                 1.108          estimate D2E/DX2                !
 ! R5    R(2,3)                  1.3908         estimate D2E/DX2                !
 ! R6    R(2,7)                  1.3939         estimate D2E/DX2                !
 ! R7    R(3,4)                  1.3893         estimate D2E/DX2                !
 ! R8    R(3,11)                 1.0837         estimate D2E/DX2                !
 ! R9    R(4,5)                  1.3863         estimate D2E/DX2                !
 ! R10   R(4,12)                 1.0826         estimate D2E/DX2                !
 ! R11   R(5,6)                  1.3893         estimate D2E/DX2                !
 ! R12   R(5,13)                 1.0821         estimate D2E/DX2                !
 ! R13   R(6,7)                  1.386          estimate D2E/DX2                !
 ! R14   R(6,14)                 1.0826         estimate D2E/DX2                !
 ! R15   R(7,15)                 1.0843         estimate D2E/DX2                !
 ! A1    A(2,1,8)              110.5991         estimate D2E/DX2                !
 ! A2    A(2,1,9)              110.9229         estimate D2E/DX2                !
 ! A3    A(2,1,10)             110.8127         estimate D2E/DX2                !
 ! A4    A(8,1,9)              108.2431         estimate D2E/DX2                !
 ! A5    A(8,1,10)             107.6232         estimate D2E/DX2                !
 ! A6    A(9,1,10)             108.5296         estimate D2E/DX2                !
 ! A7    A(1,2,3)              121.2853         estimate D2E/DX2                !
 ! A8    A(1,2,7)              120.3946         estimate D2E/DX2                !
 ! A9    A(3,2,7)              118.3163         estimate D2E/DX2                !
 ! A10   A(2,3,4)              120.9667         estimate D2E/DX2                !
 ! A11   A(2,3,11)             119.3159         estimate D2E/DX2                !
 ! A12   A(4,3,11)             119.7173         estimate D2E/DX2                !
 ! A13   A(3,4,5)              120.1421         estimate D2E/DX2                !
 ! A14   A(3,4,12)             119.7685         estimate D2E/DX2                !
 ! A15   A(5,4,12)             120.0893         estimate D2E/DX2                !
 ! A16   A(4,5,6)              119.4585         estimate D2E/DX2                !
 ! A17   A(4,5,13)             120.2942         estimate D2E/DX2                !
 ! A18   A(6,5,13)             120.2459         estimate D2E/DX2                !
 ! A19   A(5,6,7)              120.1399         estimate D2E/DX2                !
 ! A20   A(5,6,14)             120.0478         estimate D2E/DX2                !
 ! A21   A(7,6,14)             119.8123         estimate D2E/DX2                !
 ! A22   A(2,7,6)              120.9762         estimate D2E/DX2                !
 ! A23   A(2,7,15)             119.2638         estimate D2E/DX2                !
 ! A24   A(6,7,15)             119.76           estimate D2E/DX2                !
 ! D1    D(8,1,2,3)           -109.6679         estimate D2E/DX2                !
 ! D2    D(8,1,2,7)             69.6152         estimate D2E/DX2                !
 ! D3    D(9,1,2,3)             10.4471         estimate D2E/DX2                !
 ! D4    D(9,1,2,7)           -170.2697         estimate D2E/DX2                !
 ! D5    D(10,1,2,3)           131.0648         estimate D2E/DX2                !
 ! D6    D(10,1,2,7)           -49.652          estimate D2E/DX2                !
 ! D7    D(1,2,3,4)            179.1464         estimate D2E/DX2                !
 ! D8    D(1,2,3,11)            -1.0005         estimate D2E/DX2                !
 ! D9    D(7,2,3,4)             -0.1513         estimate D2E/DX2                !
 ! D10   D(7,2,3,11)           179.7019         estimate D2E/DX2                !
 ! D11   D(1,2,7,6)           -179.1502         estimate D2E/DX2                !
 ! D12   D(1,2,7,15)             0.8185         estimate D2E/DX2                !
 ! D13   D(3,2,7,6)              0.154          estimate D2E/DX2                !
 ! D14   D(3,2,7,15)          -179.8774         estimate D2E/DX2                !
 ! D15   D(2,3,4,5)              0.0032         estimate D2E/DX2                !
 ! D16   D(2,3,4,12)           179.9385         estimate D2E/DX2                !
 ! D17   D(11,3,4,5)          -179.8494         estimate D2E/DX2                !
 ! D18   D(11,3,4,12)            0.0859         estimate D2E/DX2                !
 ! D19   D(3,4,5,6)              0.1449         estimate D2E/DX2                !
 ! D20   D(3,4,5,13)           179.7048         estimate D2E/DX2                !
 ! D21   D(12,4,5,6)          -179.7902         estimate D2E/DX2                !
 ! D22   D(12,4,5,13)           -0.2303         estimate D2E/DX2                !
 ! D23   D(4,5,6,7)             -0.1422         estimate D2E/DX2                !
 ! D24   D(4,5,6,14)           179.7751         estimate D2E/DX2                !
 ! D25   D(13,5,6,7)          -179.7024         estimate D2E/DX2                !
 ! D26   D(13,5,6,14)            0.2149         estimate D2E/DX2                !
 ! D27   D(5,6,7,2)             -0.0086         estimate D2E/DX2                !
 ! D28   D(5,6,7,15)          -179.9771         estimate D2E/DX2                !
 ! D29   D(14,6,7,2)          -179.9261         estimate D2E/DX2                !
 ! D30   D(14,6,7,15)            0.1054         estimate D2E/DX2                !
 --------------------------------------------------------------------------------
 Trust Radius=3.00D-01 FncErr=1.00D-07 GrdErr=1.00D-06 EigMax=2.50D+02 EigMin=1.00D-04
 Number of steps in this run=    100 maximum allowed number of steps=    100.
 GradGradGradGradGradGradGradGradGradGradGradGradGradGradGradGradGradGrad

                          Input orientation:                          
 ---------------------------------------------------------------------
 Center     Atomic      Atomic             Coordinates (Angstroms)
 Number     Number       Type             X           Y           Z
 ---------------------------------------------------------------------
      1          6           0        2.411530    0.002898   -0.005800
      2          6           0        0.907638    0.007678    0.006347
      3          6           0        0.189091    1.198409   -0.003173
      4          6           0       -1.200153    1.194938   -0.009600
      5          6           0       -1.893289   -0.005604   -0.006511
      6          6           0       -1.187321   -1.202125    0.006107
      7          6           0        0.198607   -1.192388    0.012533
      8          1           0        2.791137   -0.358831   -0.977898
      9          1           0        2.809793    1.016526    0.164620
     10          1           0        2.809440   -0.668573    0.780582
     11          1           0        0.723953    2.140913   -0.003167
     12          1           0       -1.739961    2.133283   -0.015971
     13          1           0       -2.975393   -0.011160   -0.006688
     14          1           0       -1.718959   -2.145152    0.012300
     15          1           0        0.743376   -2.129843    0.022003
 ---------------------------------------------------------------------
                    Distance matrix (angstroms):
                    1          2          3          4          5
     1  C    0.000000
     2  C    1.503949   0.000000
     3  C    2.523586   1.390770   0.000000
     4  C    3.803318   2.419220   1.389263   0.000000
     5  C    4.304827   2.800988   2.405403   1.386271   0.000000
     6  C    3.795254   2.419189   2.767157   2.397149   1.389321
     7  C    2.515169   1.393887   2.390868   2.767010   2.405171
     8  H    1.104502   2.156533   3.185236   4.391150   4.797104
     9  H    1.102315   2.158939   2.632359   4.017692   4.815913
    10  H    1.107972   2.161852   3.311514   4.491536   4.814011
    11  H    2.723790   2.141150   1.083693   2.144083   3.384893
    12  H    4.666211   3.395361   2.143687   1.082555   2.144397
    13  H    5.386941   3.883099   3.387776   2.146196   1.082118
    14  H    4.655683   3.396134   3.849714   3.380213   2.146721
    15  H    2.707784   2.143880   3.374185   3.851295   3.386031
                    6          7          8          9         10
     6  C    0.000000
     7  C    1.385977   0.000000
     8  H    4.184201   2.897755   0.000000
     9  H    4.574326   3.423554   1.788100   0.000000
    10  H    4.105921   2.771413   1.785645   1.794148   0.000000
    11  H    3.850839   3.374482   3.387044   2.375527   3.585628
    12  H    3.380953   3.849538   5.259923   4.688285   5.402031
    13  H    2.148433   3.386731   5.858071   5.878253   5.875056
    14  H    1.082579   2.141219   4.951000   5.525306   4.824618
    15  H    2.142079   1.084290   2.886106   3.766969   2.641850
                   11         12         13         14         15
    11  H    0.000000
    12  H    2.463959   0.000000
    13  H    4.279789   2.474877   0.000000
    14  H    4.933398   4.278580   2.476471   0.000000
    15  H    4.270874   4.933827   4.280057   2.462402   0.000000
 Stoichiometry    C7H8
 Framework group  C1[X(C7H8)]
 Deg. of freedom    39
 Full point group                 C1      NOp   1
 Largest Abelian subgroup         C1      NOp   1
 Largest concise Abelian subgroup C1      NOp   1
                         Standard orientation:                         
 ---------------------------------------------------------------------
 Center     Atomic      Atomic             Coordinates (Angstroms)
 Number     Number       Type             X           Y           Z
 ---------------------------------------------------------------------
      1          6           0       -2.411528    0.003046    0.005868
      2          6           0       -0.907639    0.007676   -0.006673
      3          6           0       -0.189036    1.198410   -0.005072
      4          6           0        1.200210    1.194916    0.001041
      5          6           0        1.893290   -0.005654    0.005593
      6          6           0        1.187265   -1.202198    0.000929
      7          6           0       -0.198664   -1.192438   -0.005225
      8          1           0       -2.790916   -0.352335    0.980390
      9          1           0       -2.809787    1.015563   -0.171044
     10          1           0       -2.809659   -0.673507   -0.776033
     11          1           0       -0.723855    2.140919   -0.011079
     12          1           0        1.740062    2.133257    0.001179
     13          1           0        2.975394   -0.011259    0.005545
     14          1           0        1.718858   -2.145271    0.000741
     15          1           0       -0.743478   -2.129909   -0.008466
 ---------------------------------------------------------------------
 Rotational constants (GHZ):           5.5891947           2.5387076           1.7653589
 Standard basis: def2TZVP (5D, 7F)
 There are   300 symmetry adapted cartesian basis functions of A   symmetry.
 There are   265 symmetry adapted basis functions of A   symmetry.
   265 basis functions,   421 primitive gaussians,   300 cartesian basis functions
    25 alpha electrons       25 beta electrons
       nuclear repulsion energy       270.0373042279 Hartrees.
 NAtoms=   15 NActive=   15 NUniq=   15 SFac= 1.00D+00 NAtFMM=   60 NAOKFM=F Big=F
 Integral buffers will be    131072 words long.
 Raffenetti 2 integral format.
 Two-electron integral symmetry is turned on.
 One-electron integrals computed using PRISM.
   1 Symmetry operations used in ECPInt.
 ECPInt:  NShTT=    5995 NPrTT=   17944 LenC2=    5918 LenP2D=   14589.
 LDataN:  DoStor=T MaxTD1= 6 Len=  172
 NBasis=   265 RedAO= T EigKep=  8.34D-06  NBF=   265
 NBsUse=   265 1.00D-06 EigRej= -1.00D+00 NBFU=   265
 ExpMin= 9.52D-02 ExpMax= 1.36D+04 ExpMxC= 4.63D+02 IAcc=3 IRadAn=         5 AccDes= 0.00D+00
 Harris functional with IExCor= 1009 and IRadAn=       5 diagonalized for initial guess.
 HarFok:  IExCor= 1009 AccDes= 0.00D+00 IRadAn=         5 IDoV= 1 UseB2=F ITyADJ=14
 ICtDFT=  3500011 ScaDFX=  1.000000  1.000000  1.000000  1.000000
 FoFCou: FMM=F IPFlag=           0 FMFlag=      100000 FMFlg1=           0
         NFxFlg=           0 DoJE=T BraDBF=F KetDBF=T FulRan=T
         wScrn=  0.000000 ICntrl=       500 IOpCl=  0 I1Cent=   200000004 NGrid=           0
         NMat0=    1 NMatS0=      1 NMatT0=    0 NMatD0=    1 NMtDS0=    0 NMtDT0=    0
 Petite list used in FoFCou.
 Requested convergence on RMS density matrix=1.00D-08 within 128 cycles.
 Requested convergence on MAX density matrix=1.00D-06.
 Requested convergence on             energy=1.00D-06.
 No special actions if energy rises.
 Integral accuracy reduced to 1.0D-05 until final iterations.
 Initial convergence to 1.0D-05 achieved.  Increase integral accuracy.
 SCF Done:  E(RM062X) =  -271.534619057     A.U. after   13 cycles
            NFock= 13  Conv=0.42D-08     -V/T= 2.0053

 **********************************************************************

            Population analysis using the SCF Density.

 **********************************************************************

 Orbital symmetries:
       Occupied  (A) (A) (A) (A) (A) (A) (A) (A) (A) (A) (A) (A)
                 (A) (A) (A) (A) (A) (A) (A) (A) (A) (A) (A) (A)
                 (A)
       Virtual   (A) (A) (A) (A) (A) (A) (A) (A) (A) (A) (A) (A)
                 (A) (A) (A) (A) (A) (A) (A) (A) (A) (A) (A) (A)
                 (A) (A) (A) (A) (A) (A) (A) (A) (A) (A) (A) (A)
                 (A) (A) (A) (A) (A) (A) (A) (A) (A) (A) (A) (A)
                 (A) (A) (A) (A) (A) (A) (A) (A) (A) (A) (A) (A)
                 (A) (A) (A) (A) (A) (A) (A) (A) (A) (A) (A) (A)
                 (A) (A) (A) (A) (A) (A) (A) (A) (A) (A) (A) (A)
                 (A) (A) (A) (A) (A) (A) (A) (A) (A) (A) (A) (A)
                 (A) (A) (A) (A) (A) (A) (A) (A) (A) (A) (A) (A)
                 (A) (A) (A) (A) (A) (A) (A) (A) (A) (A) (A) (A)
                 (A) (A) (A) (A) (A) (A) (A) (A) (A) (A) (A) (A)
                 (A) (A) (A) (A) (A) (A) (A) (A) (A) (A) (A) (A)
                 (A) (A) (A) (A) (A) (A) (A) (A) (A) (A) (A) (A)
                 (A) (A) (A) (A) (A) (A) (A) (A) (A) (A) (A) (A)
                 (A) (A) (A) (A) (A) (A) (A) (A) (A) (A) (A) (A)
                 (A) (A) (A) (A) (A) (A) (A) (A) (A) (A) (A) (A)
                 (A) (A) (A) (A) (A) (A) (A) (A) (A) (A) (A) (A)
                 (A) (A) (A) (A) (A) (A) (A) (A) (A) (A) (A) (A)
                 (A) (A) (A) (A) (A) (A) (A) (A) (A) (A) (A) (A)
                 (A) (A) (A) (A) (A) (A) (A) (A) (A) (A) (A) (A)
 The electronic state is 1-A.
 Alpha  occ. eigenvalues --  -10.54682 -10.53800 -10.53771 -10.53559 -10.53545
 Alpha  occ. eigenvalues --  -10.53524 -10.53510  -0.96227  -0.86926  -0.84020
 Alpha  occ. eigenvalues --   -0.77337  -0.68711  -0.66304  -0.58565  -0.52781
 Alpha  occ. eigenvalues --   -0.52269  -0.48803  -0.48438  -0.47101  -0.44635
 Alpha  occ. eigenvalues --   -0.42458  -0.39733  -0.39483  -0.30618  -0.29570
 Alpha virt. eigenvalues --    0.02273   0.02832   0.07696   0.09315   0.10771
 Alpha virt. eigenvalues --    0.12619   0.13725   0.14346   0.15174   0.16505
 Alpha virt. eigenvalues --    0.18480   0.19256   0.20478   0.21935   0.23097
 Alpha virt. eigenvalues --    0.25684   0.26062   0.26459   0.27502   0.29023
 Alpha virt. eigenvalues --    0.29333   0.30717   0.32452   0.34583   0.35709
 Alpha virt. eigenvalues --    0.36150   0.38374   0.38828   0.39302   0.40371
 Alpha virt. eigenvalues --    0.40902   0.44180   0.44720   0.45112   0.45244
 Alpha virt. eigenvalues --    0.46718   0.48330   0.49001   0.49920   0.51611
 Alpha virt. eigenvalues --    0.53398   0.54177   0.54345   0.54950   0.56146
 Alpha virt. eigenvalues --    0.58911   0.59894   0.65224   0.68903   0.69703
 Alpha virt. eigenvalues --    0.71094   0.73728   0.75593   0.75685   0.79237
 Alpha virt. eigenvalues --    0.79349   0.81518   0.85991   0.86730   0.87611
 Alpha virt. eigenvalues --    0.89145   0.91591   0.93709   0.96966   0.97698
 Alpha virt. eigenvalues --    1.00050   1.03238   1.04237   1.05825   1.09116
 Alpha virt. eigenvalues --    1.12170   1.14079   1.15867   1.16603   1.23395
 Alpha virt. eigenvalues --    1.23736   1.26079   1.26741   1.27889   1.29582
 Alpha virt. eigenvalues --    1.31052   1.33195   1.34626   1.35524   1.42548
 Alpha virt. eigenvalues --    1.47007   1.48076   1.49455   1.50651   1.54315
 Alpha virt. eigenvalues --    1.56304   1.56655   1.58179   1.59504   1.60771
 Alpha virt. eigenvalues --    1.61043   1.64372   1.65810   1.68170   1.70912
 Alpha virt. eigenvalues --    1.72703   1.74518   1.74949   1.76447   1.77285
 Alpha virt. eigenvalues --    1.78920   1.89394   1.89675   1.94046   1.98081
 Alpha virt. eigenvalues --    1.99630   2.01976   2.04549   2.07972   2.09445
 Alpha virt. eigenvalues --    2.10300   2.12638   2.16624   2.18169   2.20482
 Alpha virt. eigenvalues --    2.23277   2.24770   2.26576   2.28125   2.31407
 Alpha virt. eigenvalues --    2.35875   2.39810   2.40309   2.47291   2.49534
 Alpha virt. eigenvalues --    2.51608   2.52520   2.54002   2.54853   2.56976
 Alpha virt. eigenvalues --    2.62143   2.62632   2.64005   2.67121   2.68921
 Alpha virt. eigenvalues --    2.69361   2.69543   2.71004   2.72055   2.74724
 Alpha virt. eigenvalues --    2.78034   2.78848   2.79324   2.79877   2.83621
 Alpha virt. eigenvalues --    2.84432   2.85786   2.85945   2.90236   2.91851
 Alpha virt. eigenvalues --    2.95367   2.99615   2.99860   3.01218   3.02765
 Alpha virt. eigenvalues --    3.04596   3.09299   3.10910   3.12555   3.14607
 Alpha virt. eigenvalues --    3.15706   3.17302   3.18276   3.19626   3.20935
 Alpha virt. eigenvalues --    3.21188   3.23274   3.25664   3.27471   3.30330
 Alpha virt. eigenvalues --    3.31950   3.32728   3.35463   3.35654   3.38965
 Alpha virt. eigenvalues --    3.39509   3.40412   3.41952   3.46662   3.47170
 Alpha virt. eigenvalues --    3.50708   3.51020   3.54909   3.56290   3.59342
 Alpha virt. eigenvalues --    3.61637   3.66562   3.69475   3.72967   3.75587
 Alpha virt. eigenvalues --    3.77664   3.80363   3.85640   3.88519   3.89953
 Alpha virt. eigenvalues --    3.94368   4.01976   4.05995   4.08240   4.09335
 Alpha virt. eigenvalues --    4.11449   4.15541   4.16722   4.18705   4.19785
 Alpha virt. eigenvalues --    4.22007   4.23619   4.27241   4.30547   4.32670
 Alpha virt. eigenvalues --    4.39654   4.40841   4.49448   4.55718   4.62866
 Alpha virt. eigenvalues --    4.64585   4.65306   4.67332   4.83657   4.84399
 Alpha virt. eigenvalues --    4.92408   4.99574   5.17149   5.18771   5.30586
 Alpha virt. eigenvalues --    5.33288   5.40490   5.56941  22.03873  22.47776
 Alpha virt. eigenvalues --   22.71212  22.73194  22.83956  22.92330  23.32265
          Condensed to atoms (all electrons):
               1          2          3          4          5          6
     1  C    5.085267   0.272711  -0.063124   0.011821  -0.002190   0.005384
     2  C    0.272711   4.907476   0.545990  -0.062962  -0.040964  -0.060019
     3  C   -0.063124   0.545990   4.967394   0.514336  -0.041699  -0.043971
     4  C    0.011821  -0.062962   0.514336   4.885321   0.529236  -0.050638
     5  C   -0.002190  -0.040964  -0.041699   0.529236   4.889321   0.522935
     6  C    0.005384  -0.060019  -0.043971  -0.050638   0.522935   4.877310
     7  C   -0.070266   0.511865  -0.064982  -0.043938  -0.043637   0.530493
     8  H    0.399319  -0.032343  -0.000783  -0.000936   0.000308  -0.000529
     9  H    0.429576  -0.058800  -0.013391   0.002144  -0.000010  -0.000367
    10  H    0.421578  -0.048511   0.006298  -0.000851   0.000243   0.000382
    11  H   -0.007650  -0.035452   0.399924  -0.025322   0.003343  -0.000359
    12  H   -0.000273   0.004451  -0.033614   0.409011  -0.032370   0.003792
    13  H    0.000103   0.001492   0.003065  -0.031116   0.405581  -0.030423
    14  H   -0.000208   0.004505  -0.000094   0.003961  -0.033126   0.410401
    15  H   -0.001119  -0.038225   0.006504  -0.000404   0.003802  -0.028479
               7          8          9         10         11         12
     1  C   -0.070266   0.399319   0.429576   0.421578  -0.007650  -0.000273
     2  C    0.511865  -0.032343  -0.058800  -0.048511  -0.035452   0.004451
     3  C   -0.064982  -0.000783  -0.013391   0.006298   0.399924  -0.033614
     4  C   -0.043938  -0.000936   0.002144  -0.000851  -0.025322   0.409011
     5  C   -0.043637   0.000308  -0.000010   0.000243   0.003343  -0.032370
     6  C    0.530493  -0.000529  -0.000367   0.000382  -0.000359   0.003792
     7  C    4.987944  -0.006886   0.012170  -0.011614   0.007833   0.000149
     8  H   -0.006886   0.541226  -0.023182  -0.034080   0.000251   0.000013
     9  H    0.012170  -0.023182   0.535696  -0.024026   0.001536  -0.000031
    10  H   -0.011614  -0.034080  -0.024026   0.538127   0.000056   0.000010
    11  H    0.007833   0.000251   0.001536   0.000056   0.520909  -0.003850
    12  H    0.000149   0.000013  -0.000031   0.000010  -0.003850   0.517245
    13  H    0.002547  -0.000002  -0.000004  -0.000002  -0.000307  -0.003974
    14  H   -0.034399   0.000001   0.000011  -0.000014   0.000086  -0.000301
    15  H    0.403919   0.000305  -0.000026  -0.000030  -0.000278   0.000084
              13         14         15
     1  C    0.000103  -0.000208  -0.001119
     2  C    0.001492   0.004505  -0.038225
     3  C    0.003065  -0.000094   0.006504
     4  C   -0.031116   0.003961  -0.000404
     5  C    0.405581  -0.033126   0.003802
     6  C   -0.030423   0.410401  -0.028479
     7  C    0.002547  -0.034399   0.403919
     8  H   -0.000002   0.000001   0.000305
     9  H   -0.000004   0.000011  -0.000026
    10  H   -0.000002  -0.000014  -0.000030
    11  H   -0.000307   0.000086  -0.000278
    12  H   -0.003974  -0.000301   0.000084
    13  H    0.516282  -0.003829  -0.000306
    14  H   -0.003829   0.517494  -0.004297
    15  H   -0.000306  -0.004297   0.515092
 Mulliken charges:
               1
     1  C   -0.480930
     2  C    0.128783
     3  C   -0.181852
     4  C   -0.139663
     5  C   -0.160775
     6  C   -0.135912
     7  C   -0.181200
     8  H    0.157318
     9  H    0.138704
    10  H    0.152433
    11  H    0.139280
    12  H    0.139656
    13  H    0.140894
    14  H    0.139810
    15  H    0.143456
 Sum of Mulliken charges =  -0.00000
 Mulliken charges with hydrogens summed into heavy atoms:
               1
     1  C   -0.032475
     2  C    0.128783
     3  C   -0.042572
     4  C   -0.000007
     5  C   -0.019882
     6  C    0.003898
     7  C   -0.037744
 Electronic spatial extent (au):  <R**2>=            713.9268
 Charge=             -0.0000 electrons
 Dipole moment (field-independent basis, Debye):
    X=             -0.3495    Y=             -0.0368    Z=              0.0193  Tot=              0.3520
 Quadrupole moment (field-independent basis, Debye-Ang):
   XX=            -38.4032   YY=            -38.6482   ZZ=            -46.2512
   XY=              0.0596   XZ=             -0.0268   YZ=             -0.0028
 Traceless Quadrupole moment (field-independent basis, Debye-Ang):
   XX=              2.6977   YY=              2.4527   ZZ=             -5.1503
   XY=              0.0596   XZ=             -0.0268   YZ=             -0.0028
 Octapole moment (field-independent basis, Debye-Ang**2):
  XXX=              5.3391  YYY=              0.4844  ZZZ=              0.4271  XYY=              1.1146
  XXY=             -0.1130  XXZ=              0.0519  XZZ=             -3.8606  YZZ=             -0.6198
  YYZ=             -0.3666  XYZ=             -0.0059
 Hexadecapole moment (field-independent basis, Debye-Ang**3):
 XXXX=           -610.6953 YYYY=           -285.4864 ZZZZ=            -61.1621 XXXY=             -0.0638
 XXXZ=              0.0372 YYYX=             -1.5150 YYYZ=             -0.0212 ZZZX=             -1.1779
 ZZZY=             -0.0377 XXYY=           -145.6844 XXZZ=           -119.9985 YYZZ=            -68.2272
 XXYZ=              0.0434 YYXZ=              1.0363 ZZXY=              1.7590
 N-N= 2.700373042279D+02 E-N=-1.169198660514D+03  KE= 2.701067557219D+02
   1 Symmetry operations used in ECPInt.
 ECPInt:  NShTT=    5995 NPrTT=   17944 LenC2=    5918 LenP2D=   14589.
 LDataN:  DoStor=T MaxTD1= 7 Len=  274
 Calling FoFJK, ICntrl=      2127 FMM=F ISym2X=0 I1Cent= 0 IOpClX= 0 NMat=1 NMatS=1 NMatT=0.
 ***** Axes restored to original set *****
 -------------------------------------------------------------------
 Center     Atomic                   Forces (Hartrees/Bohr)
 Number     Number              X              Y              Z
 -------------------------------------------------------------------
      1        6           0.007457357   -0.001134845    0.001962523
      2        6          -0.000098675   -0.000199122   -0.000105438
      3        6          -0.000004479   -0.000016901    0.000082796
      4        6           0.000094628    0.000029785   -0.000122100
      5        6           0.000011884   -0.000078266    0.000419249
      6        6          -0.000032283   -0.000002780   -0.000089972
      7        6          -0.000078964   -0.000049549   -0.000155981
      8        1          -0.002054627    0.002765178    0.007376635
      9        1          -0.002149702   -0.008211117   -0.001365246
     10        1          -0.003143206    0.006785535   -0.007893969
     11        1           0.000015552    0.000053084   -0.000056545
     12        1           0.000011859    0.000003524    0.000034080
     13        1          -0.000019503   -0.000001644   -0.000183466
     14        1          -0.000017162    0.000011129    0.000004488
     15        1           0.000007321    0.000045989    0.000092945
 -------------------------------------------------------------------
 Cartesian Forces:  Max     0.008211117 RMS     0.002664787

 GradGradGradGradGradGradGradGradGradGradGradGradGradGradGradGradGradGrad
 Berny optimization.
 FormGI is forming the generalized inverse of G from B-inverse, IUseBI=4.
 Internal  Forces:  Max     0.010844905 RMS     0.001944949
 Search for a local minimum.
 Step number   1 out of a maximum of  100
 All quantities printed in internal units (Hartrees-Bohrs-Radians)
 Mixed Optimization -- RFO/linear search
 Second derivative matrix not updated -- first step.
 ITU=  0
     Eigenvalues ---    0.00714   0.01587   0.02195   0.02220   0.02223
     Eigenvalues ---    0.02237   0.02244   0.02251   0.02254   0.02260
     Eigenvalues ---    0.07212   0.07289   0.16000   0.16000   0.16000
     Eigenvalues ---    0.16000   0.16000   0.16000   0.16000   0.16000
     Eigenvalues ---    0.22000   0.22000   0.23473   0.24998   0.31967
     Eigenvalues ---    0.32816   0.33189   0.33427   0.35481   0.35552
     Eigenvalues ---    0.35685   0.35687   0.35740   0.42897   0.43021
     Eigenvalues ---    0.47015   0.47316   0.47655   0.47904
 RFO step:  Lambda=-8.04217971D-04 EMin= 7.13714439D-03
 Linear search not attempted -- first point.
 Iteration  1 RMS(Cart)=  0.00629969 RMS(Int)=  0.00002693
 Iteration  2 RMS(Cart)=  0.00003336 RMS(Int)=  0.00000429
 Iteration  3 RMS(Cart)=  0.00000000 RMS(Int)=  0.00000429
 Variable       Old X    -DE/DX   Delta X   Delta X   Delta X     New X
                                 (Linear)    (Quad)   (Total)
    R1        2.84205   0.00011   0.00000   0.00034   0.00034   2.84239
    R2        2.08721  -0.00810   0.00000  -0.02436  -0.02436   2.06285
    R3        2.08307  -0.00854   0.00000  -0.02548  -0.02548   2.05760
    R4        2.09376  -0.01084   0.00000  -0.03297  -0.03297   2.06080
    R5        2.62817  -0.00003   0.00000  -0.00006  -0.00006   2.62811
    R6        2.63407   0.00006   0.00000   0.00014   0.00014   2.63420
    R7        2.62533  -0.00006   0.00000  -0.00013  -0.00013   2.62519
    R8        2.04788   0.00005   0.00000   0.00015   0.00015   2.04803
    R9        2.61967   0.00007   0.00000   0.00014   0.00014   2.61982
   R10        2.04573  -0.00000   0.00000  -0.00001  -0.00001   2.04572
   R11        2.62544  -0.00004   0.00000  -0.00009  -0.00009   2.62535
   R12        2.04491   0.00002   0.00000   0.00005   0.00005   2.04496
   R13        2.61912   0.00001   0.00000   0.00003   0.00003   2.61915
   R14        2.04578  -0.00000   0.00000  -0.00000  -0.00000   2.04578
   R15        2.04901  -0.00003   0.00000  -0.00010  -0.00010   2.04891
    A1        1.93032   0.00072   0.00000   0.00446   0.00445   1.93476
    A2        1.93597   0.00109   0.00000   0.00690   0.00688   1.94285
    A3        1.93405   0.00076   0.00000   0.00464   0.00463   1.93868
    A4        1.88920  -0.00092   0.00000  -0.00560  -0.00562   1.88358
    A5        1.87838  -0.00080   0.00000  -0.00521  -0.00522   1.87316
    A6        1.89420  -0.00097   0.00000  -0.00595  -0.00597   1.88823
    A7        2.11683  -0.00012   0.00000  -0.00048  -0.00048   2.11635
    A8        2.10128   0.00011   0.00000   0.00046   0.00046   2.10174
    A9        2.06501   0.00001   0.00000   0.00004   0.00003   2.06504
   A10        2.11127  -0.00002   0.00000  -0.00011  -0.00011   2.11116
   A11        2.08245   0.00002   0.00000   0.00015   0.00015   2.08260
   A12        2.08946  -0.00000   0.00000  -0.00004  -0.00004   2.08942
   A13        2.09688   0.00003   0.00000   0.00010   0.00011   2.09698
   A14        2.09036  -0.00002   0.00000  -0.00012  -0.00012   2.09024
   A15        2.09595  -0.00000   0.00000   0.00001   0.00001   2.09597
   A16        2.08494   0.00001   0.00000   0.00004   0.00004   2.08498
   A17        2.09953  -0.00000   0.00000   0.00001   0.00001   2.09954
   A18        2.09869  -0.00001   0.00000  -0.00002  -0.00002   2.09867
   A19        2.09684  -0.00003   0.00000  -0.00013  -0.00013   2.09670
   A20        2.09523  -0.00000   0.00000  -0.00005  -0.00005   2.09518
   A21        2.09112   0.00004   0.00000   0.00019   0.00019   2.09130
   A22        2.11143   0.00001   0.00000   0.00007   0.00007   2.11150
   A23        2.08155  -0.00004   0.00000  -0.00023  -0.00023   2.08132
   A24        2.09021   0.00003   0.00000   0.00016   0.00016   2.09037
    D1       -1.91407  -0.00003   0.00000  -0.00078  -0.00078  -1.91485
    D2        1.21502  -0.00002   0.00000   0.00023   0.00022   1.21524
    D3        0.18234  -0.00000   0.00000  -0.00034  -0.00034   0.18199
    D4       -2.97177   0.00001   0.00000   0.00066   0.00066  -2.97110
    D5        2.28751   0.00001   0.00000  -0.00014  -0.00014   2.28737
    D6       -0.86659   0.00003   0.00000   0.00087   0.00087  -0.86572
    D7        3.12669   0.00003   0.00000   0.00150   0.00150   3.12819
    D8       -0.01746   0.00005   0.00000   0.00235   0.00235  -0.01512
    D9       -0.00264   0.00001   0.00000   0.00051   0.00051  -0.00213
   D10        3.13639   0.00003   0.00000   0.00136   0.00136   3.13775
   D11       -3.12676  -0.00003   0.00000  -0.00155  -0.00155  -3.12831
   D12        0.01429   0.00002   0.00000   0.00057   0.00057   0.01486
   D13        0.00269  -0.00002   0.00000  -0.00058  -0.00058   0.00211
   D14       -3.13945   0.00003   0.00000   0.00155   0.00155  -3.13790
   D15        0.00006   0.00002   0.00000   0.00083   0.00083   0.00089
   D16        3.14052   0.00000   0.00000   0.00022   0.00022   3.14074
   D17       -3.13896  -0.00000   0.00000  -0.00002  -0.00002  -3.13898
   D18        0.00150  -0.00001   0.00000  -0.00063  -0.00063   0.00087
   D19        0.00253  -0.00005   0.00000  -0.00210  -0.00210   0.00043
   D20        3.13644   0.00007   0.00000   0.00311   0.00311   3.13955
   D21       -3.13793  -0.00004   0.00000  -0.00149  -0.00149  -3.13942
   D22       -0.00402   0.00009   0.00000   0.00372   0.00372  -0.00030
   D23       -0.00248   0.00005   0.00000   0.00203   0.00203  -0.00045
   D24        3.13767   0.00003   0.00000   0.00134   0.00134   3.13901
   D25       -3.13640  -0.00007   0.00000  -0.00318  -0.00318  -3.13957
   D26        0.00375  -0.00009   0.00000  -0.00386  -0.00386  -0.00011
   D27       -0.00015  -0.00002   0.00000  -0.00069  -0.00069  -0.00084
   D28       -3.14119  -0.00006   0.00000  -0.00283  -0.00283   3.13916
   D29       -3.14030   0.00000   0.00000  -0.00001  -0.00001  -3.14031
   D30        0.00184  -0.00005   0.00000  -0.00214  -0.00214  -0.00030
         Item               Value     Threshold  Converged?
 Maximum Force            0.010845     0.000450     NO 
 RMS     Force            0.001945     0.000300     NO 
 Maximum Displacement     0.028004     0.001800     NO 
 RMS     Displacement     0.006293     0.001200     NO 
 Predicted change in Energy=-4.031600D-04
 GradGradGradGradGradGradGradGradGradGradGradGradGradGradGradGradGradGrad

                          Input orientation:                          
 ---------------------------------------------------------------------
 Center     Atomic      Atomic             Coordinates (Angstroms)
 Number     Number       Type             X           Y           Z
 ---------------------------------------------------------------------
      1          6           0        2.411604    0.003090   -0.005039
      2          6           0        0.907522    0.007350    0.005865
      3          6           0        0.189167    1.198162   -0.003371
      4          6           0       -1.200009    1.194753   -0.009173
      5          6           0       -1.893366   -0.005745   -0.004739
      6          6           0       -1.187629   -1.202367    0.006058
      7          6           0        0.198319   -1.192699    0.011781
      8          1           0        2.792251   -0.353736   -0.963891
      9          1           0        2.811490    1.001707    0.163520
     10          1           0        2.807541   -0.656990    0.767474
     11          1           0        0.724078    2.140729   -0.004436
     12          1           0       -1.739663    2.133181   -0.015541
     13          1           0       -2.975497   -0.011156   -0.007334
     14          1           0       -1.719483   -2.145272    0.012018
     15          1           0        0.743165   -2.130036    0.022491
 ---------------------------------------------------------------------
                    Distance matrix (angstroms):
                    1          2          3          4          5
     1  C    0.000000
     2  C    1.504128   0.000000
     3  C    2.523376   1.390738   0.000000
     4  C    3.803133   2.419057   1.389192   0.000000
     5  C    4.304979   2.800938   2.405480   1.386347   0.000000
     6  C    3.795751   2.419312   2.767344   2.397201   1.389275
     7  C    2.515716   1.393959   2.390927   2.766891   2.405053
     8  H    1.091611   2.150120   3.179157   4.387191   4.795423
     9  H    1.088833   2.153764   2.634963   4.019853   4.814451
    10  H    1.090527   2.152085   3.300254   4.482476   4.808218
    11  H    2.723462   2.141276   1.083773   2.144062   3.385020
    12  H    4.665877   3.395173   2.143546   1.082550   2.144469
    13  H    5.387120   3.883085   3.387854   2.146293   1.082147
    14  H    4.656354   3.396317   3.849900   3.380247   2.146647
    15  H    2.708260   2.143760   3.374090   3.851123   3.385949
                    6          7          8          9         10
     6  C    0.000000
     7  C    1.385993   0.000000
     8  H    4.183350   2.895562   0.000000
     9  H    4.568992   3.415715   1.763137   0.000000
    10  H    4.103483   2.768772   1.757789   1.765234   0.000000
    11  H    3.851107   3.374674   3.379386   2.383877   3.572659
    12  H    3.380989   3.849415   5.255699   4.693111   5.392145
    13  H    2.148403   3.386667   5.856559   5.877440   5.870345
    14  H    1.082578   2.141345   4.951540   5.518709   4.824898
    15  H    2.142149   1.084238   2.885645   3.755752   2.643201
                   11         12         13         14         15
    11  H    0.000000
    12  H    2.463777   0.000000
    13  H    4.279891   2.474981   0.000000
    14  H    4.933666   4.278590   2.476368   0.000000
    15  H    4.270892   4.933649   4.280068   2.462717   0.000000
 Stoichiometry    C7H8
 Framework group  C1[X(C7H8)]
 Deg. of freedom    39
 Full point group                 C1      NOp   1
 Largest Abelian subgroup         C1      NOp   1
 Largest concise Abelian subgroup C1      NOp   1
                         Standard orientation:                         
 ---------------------------------------------------------------------
 Center     Atomic      Atomic             Coordinates (Angstroms)
 Number     Number       Type             X           Y           Z
 ---------------------------------------------------------------------
      1          6           0       -2.411654    0.002562    0.004892
      2          6           0       -0.907574    0.007179   -0.006177
      3          6           0       -0.189557    1.198230   -0.004544
      4          6           0        1.199620    1.195252    0.001152
      5          6           0        1.893318   -0.005054    0.004251
      6          6           0        1.187921   -1.201920    0.001094
      7          6           0       -0.198030   -1.192682   -0.004562
      8          1           0       -2.792113   -0.348297    0.966019
      9          1           0       -2.811839    0.999978   -0.169947
     10          1           0       -2.807473   -0.662507   -0.763391
     11          1           0       -0.724736    2.140632   -0.009396
     12          1           0        1.739008    2.133854    0.001530
     13          1           0        2.975451   -0.010141    0.006781
     14          1           0        1.720042   -2.144693    0.001052
     15          1           0       -0.742611   -2.130223   -0.009290
 ---------------------------------------------------------------------
 Rotational constants (GHZ):           5.5950498           2.5391395           1.7655509
 Standard basis: def2TZVP (5D, 7F)
 There are   300 symmetry adapted cartesian basis functions of A   symmetry.
 There are   265 symmetry adapted basis functions of A   symmetry.
   265 basis functions,   421 primitive gaussians,   300 cartesian basis functions
    25 alpha electrons       25 beta electrons
       nuclear repulsion energy       270.1903632733 Hartrees.
 NAtoms=   15 NActive=   15 NUniq=   15 SFac= 1.00D+00 NAtFMM=   60 NAOKFM=F Big=F
 Integral buffers will be    131072 words long.
 Raffenetti 2 integral format.
 Two-electron integral symmetry is turned on.
 One-electron integrals computed using PRISM.
   1 Symmetry operations used in ECPInt.
 ECPInt:  NShTT=    5995 NPrTT=   17944 LenC2=    5919 LenP2D=   14590.
 LDataN:  DoStor=T MaxTD1= 6 Len=  172
 NBasis=   265 RedAO= T EigKep=  8.34D-06  NBF=   265
 NBsUse=   265 1.00D-06 EigRej= -1.00D+00 NBFU=   265
 Initial guess from the checkpoint file:  "/gpfs/summit/scratch/jvalegre@colostate.edu/9187674/Gau-254305.chk"
 B after Tr=    -0.000000    0.000000    0.000000
         Rot=    1.000000   -0.000033    0.000021   -0.000167 Ang=  -0.02 deg.
 ExpMin= 9.52D-02 ExpMax= 1.36D+04 ExpMxC= 4.63D+02 IAcc=3 IRadAn=         5 AccDes= 0.00D+00
 Harris functional with IExCor= 1009 and IRadAn=       5 diagonalized for initial guess.
 HarFok:  IExCor= 1009 AccDes= 0.00D+00 IRadAn=         5 IDoV= 1 UseB2=F ITyADJ=14
 ICtDFT=  3500011 ScaDFX=  1.000000  1.000000  1.000000  1.000000
 FoFCou: FMM=F IPFlag=           0 FMFlag=      100000 FMFlg1=           0
         NFxFlg=           0 DoJE=T BraDBF=F KetDBF=T FulRan=T
         wScrn=  0.000000 ICntrl=       500 IOpCl=  0 I1Cent=   200000004 NGrid=           0
         NMat0=    1 NMatS0=      1 NMatT0=    0 NMatD0=    1 NMtDS0=    0 NMtDT0=    0
 Petite list used in FoFCou.
 Requested convergence on RMS density matrix=1.00D-08 within 128 cycles.
 Requested convergence on MAX density matrix=1.00D-06.
 Requested convergence on             energy=1.00D-06.
 No special actions if energy rises.
 Integral accuracy reduced to 1.0D-05 until final iterations.
 Initial convergence to 1.0D-05 achieved.  Increase integral accuracy.
 SCF Done:  E(RM062X) =  -271.535016548     A.U. after   10 cycles
            NFock= 10  Conv=0.31D-08     -V/T= 2.0051
   1 Symmetry operations used in ECPInt.
 ECPInt:  NShTT=    5995 NPrTT=   17944 LenC2=    5919 LenP2D=   14590.
 LDataN:  DoStor=T MaxTD1= 7 Len=  274
 Calling FoFJK, ICntrl=      2127 FMM=F ISym2X=0 I1Cent= 0 IOpClX= 0 NMat=1 NMatS=1 NMatT=0.
 ***** Axes restored to original set *****
 -------------------------------------------------------------------
 Center     Atomic                   Forces (Hartrees/Bohr)
 Number     Number              X              Y              Z
 -------------------------------------------------------------------
      1        6           0.000044104   -0.000156461    0.000093851
      2        6           0.000012294   -0.000060213   -0.000058713
      3        6           0.000011671    0.000021857    0.000009541
      4        6           0.000022928    0.000032623    0.000002341
      5        6           0.000014584   -0.000043564   -0.000012942
      6        6          -0.000050937    0.000026783    0.000022148
      7        6           0.000112471    0.000048638    0.000013305
      8        1          -0.000057916   -0.000004506   -0.000229063
      9        1          -0.000045394    0.000251922   -0.000002737
     10        1          -0.000041593   -0.000124252    0.000182339
     11        1          -0.000007273   -0.000004129   -0.000021762
     12        1          -0.000007528    0.000001705    0.000024819
     13        1          -0.000001357    0.000004478   -0.000019674
     14        1          -0.000003278    0.000004780    0.000004135
     15        1          -0.000002776    0.000000339   -0.000007588
 -------------------------------------------------------------------
 Cartesian Forces:  Max     0.000251922 RMS     0.000072964

 GradGradGradGradGradGradGradGradGradGradGradGradGradGradGradGradGradGrad
 Berny optimization.
 Using GEDIIS/GDIIS optimizer.
 FormGI is forming the generalized inverse of G from B-inverse, IUseBI=4.
 Internal  Forces:  Max     0.000214939 RMS     0.000060104
 Search for a local minimum.
 Step number   2 out of a maximum of  100
 All quantities printed in internal units (Hartrees-Bohrs-Radians)
 Mixed Optimization -- En-DIIS/RFO-DIIS
 Update second derivatives using D2CorX and points    1    2
 DE= -3.97D-04 DEPred=-4.03D-04 R= 9.86D-01
 TightC=F SS=  1.41D+00  RLast= 5.10D-02 DXNew= 5.0454D-01 1.5314D-01
 Trust test= 9.86D-01 RLast= 5.10D-02 DXMaxT set to 3.00D-01
 ITU=  1  0
 Use linear search instead of GDIIS.
     Eigenvalues ---    0.00714   0.01587   0.02195   0.02220   0.02223
     Eigenvalues ---    0.02237   0.02244   0.02251   0.02254   0.02260
     Eigenvalues ---    0.07144   0.07237   0.15999   0.16000   0.16000
     Eigenvalues ---    0.16000   0.16000   0.16000   0.16000   0.16144
     Eigenvalues ---    0.22000   0.22000   0.23472   0.24998   0.31946
     Eigenvalues ---    0.32897   0.33272   0.33907   0.35481   0.35552
     Eigenvalues ---    0.35685   0.35687   0.35740   0.42897   0.43022
     Eigenvalues ---    0.47019   0.47316   0.47655   0.47904
 RFO step:  Lambda=-7.08069202D-07 EMin= 7.13712176D-03
 Quartic linear search produced a step of -0.02373.
 Iteration  1 RMS(Cart)=  0.00047440 RMS(Int)=  0.00000027
 Iteration  2 RMS(Cart)=  0.00000030 RMS(Int)=  0.00000010
 Variable       Old X    -DE/DX   Delta X   Delta X   Delta X     New X
                                 (Linear)    (Quad)   (Total)
    R1        2.84239  -0.00010  -0.00001  -0.00030  -0.00031   2.84208
    R2        2.06285   0.00018   0.00058  -0.00009   0.00049   2.06334
    R3        2.05760   0.00021   0.00060  -0.00002   0.00058   2.05818
    R4        2.06080   0.00019   0.00078  -0.00028   0.00050   2.06130
    R5        2.62811   0.00001   0.00000   0.00003   0.00003   2.62814
    R6        2.63420  -0.00009  -0.00000  -0.00018  -0.00019   2.63401
    R7        2.62519  -0.00002   0.00000  -0.00003  -0.00003   2.62516
    R8        2.04803  -0.00001  -0.00000  -0.00002  -0.00002   2.04801
    R9        2.61982   0.00002  -0.00000   0.00004   0.00004   2.61986
   R10        2.04572   0.00000   0.00000   0.00001   0.00001   2.04574
   R11        2.62535  -0.00002   0.00000  -0.00005  -0.00004   2.62531
   R12        2.04496   0.00000  -0.00000   0.00001   0.00000   2.04497
   R13        2.61915   0.00004  -0.00000   0.00008   0.00008   2.61923
   R14        2.04578  -0.00000   0.00000  -0.00001  -0.00001   2.04577
   R15        2.04891  -0.00000   0.00000  -0.00001  -0.00000   2.04891
    A1        1.93476  -0.00013  -0.00011  -0.00073  -0.00084   1.93393
    A2        1.94285  -0.00015  -0.00016  -0.00089  -0.00105   1.94180
    A3        1.93868  -0.00008  -0.00011  -0.00022  -0.00033   1.93835
    A4        1.88358   0.00009   0.00013   0.00008   0.00021   1.88380
    A5        1.87316   0.00016   0.00012   0.00112   0.00125   1.87440
    A6        1.88823   0.00014   0.00014   0.00075   0.00089   1.88912
    A7        2.11635  -0.00002   0.00001  -0.00010  -0.00009   2.11626
    A8        2.10174  -0.00001  -0.00001  -0.00003  -0.00004   2.10170
    A9        2.06504   0.00004  -0.00000   0.00014   0.00014   2.06518
   A10        2.11116  -0.00001   0.00000  -0.00004  -0.00004   2.11112
   A11        2.08260   0.00001  -0.00000   0.00006   0.00005   2.08265
   A12        2.08942  -0.00000   0.00000  -0.00002  -0.00002   2.08941
   A13        2.09698  -0.00002  -0.00000  -0.00006  -0.00006   2.09692
   A14        2.09024   0.00002   0.00000   0.00007   0.00008   2.09031
   A15        2.09597   0.00000  -0.00000  -0.00001  -0.00001   2.09595
   A16        2.08498   0.00001  -0.00000   0.00005   0.00005   2.08503
   A17        2.09954  -0.00001  -0.00000  -0.00004  -0.00004   2.09950
   A18        2.09867  -0.00000   0.00000  -0.00001  -0.00000   2.09866
   A19        2.09670   0.00000   0.00000   0.00001   0.00001   2.09672
   A20        2.09518  -0.00000   0.00000  -0.00003  -0.00003   2.09515
   A21        2.09130   0.00000  -0.00000   0.00002   0.00002   2.09132
   A22        2.11150  -0.00002  -0.00000  -0.00009  -0.00010   2.11140
   A23        2.08132   0.00001   0.00001   0.00005   0.00005   2.08137
   A24        2.09037   0.00001  -0.00000   0.00005   0.00004   2.09041
    D1       -1.91485   0.00004   0.00002   0.00064   0.00066  -1.91419
    D2        1.21524   0.00005  -0.00001   0.00126   0.00126   1.21649
    D3        0.18199  -0.00003   0.00001  -0.00035  -0.00034   0.18166
    D4       -2.97110  -0.00002  -0.00002   0.00028   0.00026  -2.97084
    D5        2.28737  -0.00002   0.00000  -0.00015  -0.00014   2.28723
    D6       -0.86572  -0.00001  -0.00002   0.00048   0.00046  -0.86527
    D7        3.12819   0.00001  -0.00004   0.00056   0.00052   3.12871
    D8       -0.01512   0.00001  -0.00006   0.00073   0.00067  -0.01444
    D9       -0.00213   0.00000  -0.00001  -0.00005  -0.00007  -0.00219
   D10        3.13775   0.00000  -0.00003   0.00012   0.00009   3.13783
   D11       -3.12831  -0.00001   0.00004  -0.00041  -0.00038  -3.12869
   D12        0.01486  -0.00001  -0.00001  -0.00048  -0.00049   0.01437
   D13        0.00211   0.00000   0.00001   0.00019   0.00020   0.00231
   D14       -3.13790  -0.00000  -0.00004   0.00012   0.00009  -3.13782
   D15        0.00089  -0.00001  -0.00002  -0.00029  -0.00031   0.00058
   D16        3.14074  -0.00001  -0.00001  -0.00035  -0.00035   3.14039
   D17       -3.13898  -0.00001   0.00000  -0.00046  -0.00046  -3.13944
   D18        0.00087  -0.00001   0.00001  -0.00052  -0.00051   0.00036
   D19        0.00043   0.00001   0.00005   0.00049   0.00054   0.00097
   D20        3.13955   0.00001  -0.00007   0.00059   0.00052   3.14007
   D21       -3.13942   0.00001   0.00004   0.00055   0.00059  -3.13883
   D22       -0.00030   0.00001  -0.00009   0.00065   0.00056   0.00027
   D23       -0.00045  -0.00001  -0.00005  -0.00035  -0.00040  -0.00085
   D24        3.13901  -0.00001  -0.00003  -0.00021  -0.00024   3.13877
   D25       -3.13957  -0.00001   0.00008  -0.00045  -0.00038  -3.13995
   D26       -0.00011  -0.00000   0.00009  -0.00031  -0.00022  -0.00033
   D27       -0.00084   0.00000   0.00002   0.00001   0.00003  -0.00081
   D28        3.13916   0.00000   0.00007   0.00008   0.00015   3.13931
   D29       -3.14031  -0.00000   0.00000  -0.00013  -0.00013  -3.14044
   D30       -0.00030   0.00000   0.00005  -0.00007  -0.00001  -0.00032
         Item               Value     Threshold  Converged?
 Maximum Force            0.000215     0.000450     YES
 RMS     Force            0.000060     0.000300     YES
 Maximum Displacement     0.001954     0.001800     NO 
 RMS     Displacement     0.000475     0.001200     YES
 Predicted change in Energy=-6.050782D-07
 GradGradGradGradGradGradGradGradGradGradGradGradGradGradGradGradGradGrad

                          Input orientation:                          
 ---------------------------------------------------------------------
 Center     Atomic      Atomic             Coordinates (Angstroms)
 Number     Number       Type             X           Y           Z
 ---------------------------------------------------------------------
      1          6           0        2.411555    0.002911   -0.004892
      2          6           0        0.907633    0.007191    0.005625
      3          6           0        0.189398    1.198094   -0.003539
      4          6           0       -1.199763    1.194785   -0.009081
      5          6           0       -1.893138   -0.005728   -0.004821
      6          6           0       -1.187478   -1.202366    0.006189
      7          6           0        0.198514   -1.192792    0.011817
      8          1           0        2.791676   -0.353280   -0.964485
      9          1           0        2.810456    1.002239    0.163774
     10          1           0        2.807050   -0.657473    0.767960
     11          1           0        0.724357    2.140621   -0.004897
     12          1           0       -1.739426    2.133218   -0.015064
     13          1           0       -2.975270   -0.011088   -0.007697
     14          1           0       -1.719410   -2.145223    0.012239
     15          1           0        0.743335   -2.130140    0.022556
 ---------------------------------------------------------------------
                    Distance matrix (angstroms):
                    1          2          3          4          5
     1  C    0.000000
     2  C    1.503965   0.000000
     3  C    2.523182   1.390753   0.000000
     4  C    3.802920   2.419032   1.389176   0.000000
     5  C    4.304702   2.800821   2.405441   1.386369   0.000000
     6  C    3.795505   2.419198   2.767325   2.397232   1.389252
     7  C    2.515459   1.393860   2.390952   2.766973   2.405079
     8  H    1.091871   2.149575   3.178369   4.386443   4.794709
     9  H    1.089140   2.153106   2.633685   4.018558   4.813338
    10  H    1.090791   2.151910   3.300067   4.482098   4.807674
    11  H    2.723314   2.141313   1.083762   2.144029   3.384981
    12  H    4.665721   3.395194   2.143584   1.082556   2.144487
    13  H    5.386845   3.882970   3.387811   2.146290   1.082149
    14  H    4.656141   3.396216   3.849878   3.380258   2.146605
    15  H    2.708066   2.143704   3.374117   3.851202   3.385981
                    6          7          8          9         10
     6  C    0.000000
     7  C    1.386036   0.000000
     8  H    4.182920   2.895244   0.000000
     9  H    4.568215   3.415185   1.763733   0.000000
    10  H    4.102859   2.768172   1.759016   1.766266   0.000000
    11  H    3.851077   3.374674   3.378484   2.382472   3.572709
    12  H    3.381009   3.849503   5.254994   4.691750   5.391802
    13  H    2.148381   3.386696   5.855784   5.876297   5.869812
    14  H    1.082574   2.141392   4.951257   5.518076   4.824246
    15  H    2.142211   1.084236   2.885687   3.755627   2.642592
                   11         12         13         14         15
    11  H    0.000000
    12  H    2.463815   0.000000
    13  H    4.279848   2.474957   0.000000
    14  H    4.933634   4.278575   2.476311   0.000000
    15  H    4.270891   4.933735   4.280108   2.462812   0.000000
 Stoichiometry    C7H8
 Framework group  C1[X(C7H8)]
 Deg. of freedom    39
 Full point group                 C1      NOp   1
 Largest Abelian subgroup         C1      NOp   1
 Largest concise Abelian subgroup C1      NOp   1
                         Standard orientation:                         
 ---------------------------------------------------------------------
 Center     Atomic      Atomic             Coordinates (Angstroms)
 Number     Number       Type             X           Y           Z
 ---------------------------------------------------------------------
      1          6           0       -2.411494    0.002508    0.004738
      2          6           0       -0.907574    0.007097   -0.005945
      3          6           0       -0.189636    1.198213   -0.004451
      4          6           0        1.199526    1.195288    0.000984
      5          6           0        1.893202   -0.005055    0.004325
      6          6           0        1.187841   -1.201915    0.001021
      7          6           0       -0.198154   -1.192724   -0.004541
      8          1           0       -2.791438   -0.347644    0.966621
      9          1           0       -2.810660    1.000638   -0.170268
     10          1           0       -2.806893   -0.662897   -0.763846
     11          1           0       -0.724831    2.140596   -0.009060
     12          1           0        1.738954    2.133875    0.000926
     13          1           0        2.975336   -0.010125    0.007136
     14          1           0        1.720009   -2.144658    0.000941
     15          1           0       -0.742741   -2.130258   -0.009245
 ---------------------------------------------------------------------
 Rotational constants (GHZ):           5.5947502           2.5395347           1.7657357
 Standard basis: def2TZVP (5D, 7F)
 There are   300 symmetry adapted cartesian basis functions of A   symmetry.
 There are   265 symmetry adapted basis functions of A   symmetry.
   265 basis functions,   421 primitive gaussians,   300 cartesian basis functions
    25 alpha electrons       25 beta electrons
       nuclear repulsion energy       270.1962609271 Hartrees.
 NAtoms=   15 NActive=   15 NUniq=   15 SFac= 1.00D+00 NAtFMM=   60 NAOKFM=F Big=F
 Integral buffers will be    131072 words long.
 Raffenetti 2 integral format.
 Two-electron integral symmetry is turned on.
 One-electron integrals computed using PRISM.
   1 Symmetry operations used in ECPInt.
 ECPInt:  NShTT=    5995 NPrTT=   17944 LenC2=    5919 LenP2D=   14590.
 LDataN:  DoStor=T MaxTD1= 6 Len=  172
 NBasis=   265 RedAO= T EigKep=  8.34D-06  NBF=   265
 NBsUse=   265 1.00D-06 EigRej= -1.00D+00 NBFU=   265
 Initial guess from the checkpoint file:  "/gpfs/summit/scratch/jvalegre@colostate.edu/9187674/Gau-254305.chk"
 B after Tr=     0.000000   -0.000000   -0.000000
         Rot=    1.000000    0.000015   -0.000000    0.000005 Ang=   0.00 deg.
 Requested convergence on RMS density matrix=1.00D-08 within 128 cycles.
 Requested convergence on MAX density matrix=1.00D-06.
 Requested convergence on             energy=1.00D-06.
 No special actions if energy rises.
 SCF Done:  E(RM062X) =  -271.535017175     A.U. after    7 cycles
            NFock=  7  Conv=0.39D-08     -V/T= 2.0051
   1 Symmetry operations used in ECPInt.
 ECPInt:  NShTT=    5995 NPrTT=   17944 LenC2=    5919 LenP2D=   14590.
 LDataN:  DoStor=T MaxTD1= 7 Len=  274
 Calling FoFJK, ICntrl=      2127 FMM=F ISym2X=0 I1Cent= 0 IOpClX= 0 NMat=1 NMatS=1 NMatT=0.
 ***** Axes restored to original set *****
 -------------------------------------------------------------------
 Center     Atomic                   Forces (Hartrees/Bohr)
 Number     Number              X              Y              Z
 -------------------------------------------------------------------
      1        6           0.000121739   -0.000034509    0.000021635
      2        6          -0.000055085   -0.000028885    0.000012999
      3        6          -0.000021707    0.000009123    0.000002381
      4        6           0.000019156    0.000019099   -0.000019075
      5        6           0.000003084   -0.000028714    0.000010034
      6        6          -0.000029726    0.000010903   -0.000010669
      7        6           0.000017187    0.000018776    0.000006235
      8        1          -0.000011000    0.000014117   -0.000014664
      9        1          -0.000007437    0.000012046   -0.000008006
     10        1          -0.000027735    0.000007064   -0.000005058
     11        1           0.000001393   -0.000000311   -0.000002501
     12        1          -0.000002117   -0.000001476    0.000005275
     13        1          -0.000000686    0.000002130   -0.000001111
     14        1          -0.000003683    0.000001396    0.000001887
     15        1          -0.000003383   -0.000000760    0.000000638
 -------------------------------------------------------------------
 Cartesian Forces:  Max     0.000121739 RMS     0.000024329

 GradGradGradGradGradGradGradGradGradGradGradGradGradGradGradGradGradGrad
 Berny optimization.
 Using GEDIIS/GDIIS optimizer.
 FormGI is forming the generalized inverse of G from B-inverse, IUseBI=4.
 Internal  Forces:  Max     0.000075602 RMS     0.000012174
 Search for a local minimum.
 Step number   3 out of a maximum of  100
 All quantities printed in internal units (Hartrees-Bohrs-Radians)
 Mixed Optimization -- En-DIIS/RFO-DIIS
 Swapping is turned off.
 Update second derivatives using D2CorX and points    1    2    3
 DE= -6.27D-07 DEPred=-6.05D-07 R= 1.04D+00
 Trust test= 1.04D+00 RLast= 3.36D-03 DXMaxT set to 3.00D-01
 ITU=  0  1  0
     Eigenvalues ---    0.00707   0.01604   0.02197   0.02203   0.02222
     Eigenvalues ---    0.02234   0.02240   0.02246   0.02258   0.02284
     Eigenvalues ---    0.06888   0.07178   0.14498   0.16000   0.16000
     Eigenvalues ---    0.16000   0.16000   0.16000   0.16000   0.16120
     Eigenvalues ---    0.21995   0.22008   0.23574   0.24992   0.31832
     Eigenvalues ---    0.32914   0.33301   0.35481   0.35550   0.35683
     Eigenvalues ---    0.35686   0.35739   0.37400   0.42895   0.43196
     Eigenvalues ---    0.46767   0.47313   0.47682   0.47885
 En-DIIS/RFO-DIIS/Sim-DIIS IScMMF=       -3 using points:     3    2
 RFO step:  Lambda=-5.60659918D-08.
 DidBck=F Rises=F RFO-DIIS coefs:    1.13295   -0.13295
 Iteration  1 RMS(Cart)=  0.00015818 RMS(Int)=  0.00000004
 Iteration  2 RMS(Cart)=  0.00000003 RMS(Int)=  0.00000003
 Variable       Old X    -DE/DX   Delta X   Delta X   Delta X     New X
                                 (Linear)    (Quad)   (Total)
    R1        2.84208   0.00008  -0.00004   0.00028   0.00024   2.84232
    R2        2.06334   0.00000   0.00007  -0.00003   0.00003   2.06337
    R3        2.05818   0.00001   0.00008  -0.00003   0.00005   2.05822
    R4        2.06130  -0.00002   0.00007  -0.00011  -0.00005   2.06125
    R5        2.62814   0.00002   0.00000   0.00004   0.00004   2.62819
    R6        2.63401  -0.00001  -0.00002   0.00000  -0.00002   2.63399
    R7        2.62516  -0.00001  -0.00000  -0.00001  -0.00002   2.62514
    R8        2.04801   0.00000  -0.00000   0.00000  -0.00000   2.04801
    R9        2.61986   0.00001   0.00001   0.00003   0.00003   2.61989
   R10        2.04574  -0.00000   0.00000  -0.00000  -0.00000   2.04573
   R11        2.62531  -0.00002  -0.00001  -0.00004  -0.00005   2.62526
   R12        2.04497   0.00000   0.00000   0.00000   0.00000   2.04497
   R13        2.61923   0.00002   0.00001   0.00004   0.00005   2.61928
   R14        2.04577   0.00000  -0.00000   0.00000   0.00000   2.04577
   R15        2.04891  -0.00000  -0.00000  -0.00000  -0.00000   2.04891
    A1        1.93393  -0.00001  -0.00011  -0.00002  -0.00013   1.93380
    A2        1.94180  -0.00001  -0.00014  -0.00001  -0.00015   1.94165
    A3        1.93835  -0.00002  -0.00004  -0.00008  -0.00012   1.93823
    A4        1.88380   0.00000   0.00003  -0.00007  -0.00004   1.88376
    A5        1.87440   0.00003   0.00017   0.00011   0.00028   1.87468
    A6        1.88912   0.00002   0.00012   0.00007   0.00019   1.88931
    A7        2.11626  -0.00000  -0.00001   0.00000  -0.00001   2.11625
    A8        2.10170   0.00001  -0.00001   0.00005   0.00005   2.10174
    A9        2.06518  -0.00001   0.00002  -0.00005  -0.00004   2.06514
   A10        2.11112   0.00000  -0.00000   0.00002   0.00002   2.11114
   A11        2.08265  -0.00000   0.00001  -0.00002  -0.00001   2.08264
   A12        2.08941  -0.00000  -0.00000  -0.00001  -0.00001   2.08940
   A13        2.09692   0.00000  -0.00001   0.00000  -0.00000   2.09691
   A14        2.09031   0.00000   0.00001   0.00002   0.00003   2.09034
   A15        2.09595  -0.00000  -0.00000  -0.00003  -0.00003   2.09593
   A16        2.08503   0.00000   0.00001  -0.00000   0.00000   2.08503
   A17        2.09950  -0.00000  -0.00001  -0.00000  -0.00001   2.09949
   A18        2.09866  -0.00000  -0.00000   0.00000   0.00000   2.09866
   A19        2.09672  -0.00000   0.00000  -0.00001  -0.00001   2.09671
   A20        2.09515  -0.00000  -0.00000  -0.00001  -0.00001   2.09513
   A21        2.09132   0.00000   0.00000   0.00002   0.00002   2.09134
   A22        2.11140   0.00001  -0.00001   0.00004   0.00003   2.11143
   A23        2.08137  -0.00000   0.00001  -0.00001   0.00000   2.08137
   A24        2.09041  -0.00001   0.00001  -0.00003  -0.00003   2.09038
    D1       -1.91419   0.00001   0.00009   0.00051   0.00060  -1.91360
    D2        1.21649   0.00001   0.00017   0.00025   0.00042   1.21692
    D3        0.18166  -0.00000  -0.00004   0.00040   0.00036   0.18202
    D4       -2.97084  -0.00000   0.00003   0.00015   0.00018  -2.97066
    D5        2.28723   0.00000  -0.00002   0.00043   0.00041   2.28764
    D6       -0.86527  -0.00000   0.00006   0.00018   0.00024  -0.86503
    D7        3.12871  -0.00000   0.00007  -0.00025  -0.00018   3.12854
    D8       -0.01444  -0.00000   0.00009  -0.00017  -0.00008  -0.01453
    D9       -0.00219  -0.00000  -0.00001   0.00000  -0.00001  -0.00220
   D10        3.13783   0.00000   0.00001   0.00007   0.00009   3.13792
   D11       -3.12869   0.00000  -0.00005   0.00022   0.00017  -3.12852
   D12        0.01437   0.00000  -0.00007   0.00018   0.00012   0.01448
   D13        0.00231   0.00000   0.00003  -0.00002   0.00000   0.00232
   D14       -3.13782  -0.00000   0.00001  -0.00007  -0.00005  -3.13787
   D15        0.00058   0.00000  -0.00004   0.00012   0.00008   0.00066
   D16        3.14039  -0.00000  -0.00005  -0.00009  -0.00014   3.14025
   D17       -3.13944   0.00000  -0.00006   0.00004  -0.00002  -3.13946
   D18        0.00036  -0.00000  -0.00007  -0.00016  -0.00023   0.00013
   D19        0.00097  -0.00000   0.00007  -0.00021  -0.00014   0.00083
   D20        3.14007  -0.00000   0.00007  -0.00011  -0.00004   3.14002
   D21       -3.13883   0.00000   0.00008  -0.00001   0.00007  -3.13876
   D22        0.00027   0.00000   0.00007   0.00009   0.00017   0.00044
   D23       -0.00085   0.00000  -0.00005   0.00019   0.00014  -0.00071
   D24        3.13877   0.00000  -0.00003   0.00007   0.00004   3.13881
   D25       -3.13995   0.00000  -0.00005   0.00009   0.00004  -3.13991
   D26       -0.00033  -0.00000  -0.00003  -0.00003  -0.00006  -0.00039
   D27       -0.00081  -0.00000   0.00000  -0.00008  -0.00007  -0.00088
   D28        3.13931  -0.00000   0.00002  -0.00003  -0.00001   3.13930
   D29       -3.14044   0.00000  -0.00002   0.00005   0.00003  -3.14041
   D30       -0.00032   0.00000  -0.00000   0.00009   0.00009  -0.00023
         Item               Value     Threshold  Converged?
 Maximum Force            0.000076     0.000450     YES
 RMS     Force            0.000012     0.000300     YES
 Maximum Displacement     0.000751     0.001800     YES
 RMS     Displacement     0.000158     0.001200     YES
 Predicted change in Energy=-2.803266D-08
 Optimization completed.
    -- Stationary point found.
                           ----------------------------
                           !   Optimized Parameters   !
                           ! (Angstroms and Degrees)  !
 --------------------------                            --------------------------
 ! Name  Definition              Value          Derivative Info.                !
 --------------------------------------------------------------------------------
 ! R1    R(1,2)                  1.504          -DE/DX =    0.0001              !
 ! R2    R(1,8)                  1.0919         -DE/DX =    0.0                 !
 ! R3    R(1,9)                  1.0891         -DE/DX =    0.0                 !
 ! R4    R(1,10)                 1.0908         -DE/DX =    0.0                 !
 ! R5    R(2,3)                  1.3908         -DE/DX =    0.0                 !
 ! R6    R(2,7)                  1.3939         -DE/DX =    0.0                 !
 ! R7    R(3,4)                  1.3892         -DE/DX =    0.0                 !
 ! R8    R(3,11)                 1.0838         -DE/DX =    0.0                 !
 ! R9    R(4,5)                  1.3864         -DE/DX =    0.0                 !
 ! R10   R(4,12)                 1.0826         -DE/DX =    0.0                 !
 ! R11   R(5,6)                  1.3893         -DE/DX =    0.0                 !
 ! R12   R(5,13)                 1.0821         -DE/DX =    0.0                 !
 ! R13   R(6,7)                  1.386          -DE/DX =    0.0                 !
 ! R14   R(6,14)                 1.0826         -DE/DX =    0.0                 !
 ! R15   R(7,15)                 1.0842         -DE/DX =    0.0                 !
 ! A1    A(2,1,8)              110.8058         -DE/DX =    0.0                 !
 ! A2    A(2,1,9)              111.2568         -DE/DX =    0.0                 !
 ! A3    A(2,1,10)             111.0593         -DE/DX =    0.0                 !
 ! A4    A(8,1,9)              107.9336         -DE/DX =    0.0                 !
 ! A5    A(8,1,10)             107.3953         -DE/DX =    0.0                 !
 ! A6    A(9,1,10)             108.2387         -DE/DX =    0.0                 !
 ! A7    A(1,2,3)              121.2526         -DE/DX =    0.0                 !
 ! A8    A(1,2,7)              120.4184         -DE/DX =    0.0                 !
 ! A9    A(3,2,7)              118.3261         -DE/DX =    0.0                 !
 ! A10   A(2,3,4)              120.9585         -DE/DX =    0.0                 !
 ! A11   A(2,3,11)             119.3272         -DE/DX =    0.0                 !
 ! A12   A(4,3,11)             119.7142         -DE/DX =    0.0                 !
 ! A13   A(3,4,5)              120.1445         -DE/DX =    0.0                 !
 ! A14   A(3,4,12)             119.7661         -DE/DX =    0.0                 !
 ! A15   A(5,4,12)             120.0893         -DE/DX =    0.0                 !
 ! A16   A(4,5,6)              119.4632         -DE/DX =    0.0                 !
 ! A17   A(4,5,13)             120.2922         -DE/DX =    0.0                 !
 ! A18   A(6,5,13)             120.2444         -DE/DX =    0.0                 !
 ! A19   A(5,6,7)              120.133          -DE/DX =    0.0                 !
 ! A20   A(5,6,14)             120.043          -DE/DX =    0.0                 !
 ! A21   A(7,6,14)             119.8239         -DE/DX =    0.0                 !
 ! A22   A(2,7,6)              120.9746         -DE/DX =    0.0                 !
 ! A23   A(2,7,15)             119.2537         -DE/DX =    0.0                 !
 ! A24   A(6,7,15)             119.7717         -DE/DX =    0.0                 !
 ! D1    D(8,1,2,3)           -109.6751         -DE/DX =    0.0                 !
 ! D2    D(8,1,2,7)             69.7            -DE/DX =    0.0                 !
 ! D3    D(9,1,2,3)             10.4082         -DE/DX =    0.0                 !
 ! D4    D(9,1,2,7)           -170.2167         -DE/DX =    0.0                 !
 ! D5    D(10,1,2,3)           131.0487         -DE/DX =    0.0                 !
 ! D6    D(10,1,2,7)           -49.5762         -DE/DX =    0.0                 !
 ! D7    D(1,2,3,4)            179.2621         -DE/DX =    0.0                 !
 ! D8    D(1,2,3,11)            -0.8275         -DE/DX =    0.0                 !
 ! D9    D(7,2,3,4)             -0.1258         -DE/DX =    0.0                 !
 ! D10   D(7,2,3,11)           179.7846         -DE/DX =    0.0                 !
 ! D11   D(1,2,7,6)           -179.2607         -DE/DX =    0.0                 !
 ! D12   D(1,2,7,15)             0.8231         -DE/DX =    0.0                 !
 ! D13   D(3,2,7,6)              0.1325         -DE/DX =    0.0                 !
 ! D14   D(3,2,7,15)          -179.7838         -DE/DX =    0.0                 !
 ! D15   D(2,3,4,5)              0.0332         -DE/DX =    0.0                 !
 ! D16   D(2,3,4,12)           179.9309         -DE/DX =    0.0                 !
 ! D17   D(11,3,4,5)          -179.8768         -DE/DX =    0.0                 !
 ! D18   D(11,3,4,12)            0.0209         -DE/DX =    0.0                 !
 ! D19   D(3,4,5,6)              0.0555         -DE/DX =    0.0                 !
 ! D20   D(3,4,5,13)           179.9126         -DE/DX =    0.0                 !
 ! D21   D(12,4,5,6)          -179.8419         -DE/DX =    0.0                 !
 ! D22   D(12,4,5,13)            0.0152         -DE/DX =    0.0                 !
 ! D23   D(4,5,6,7)             -0.0489         -DE/DX =    0.0                 !
 ! D24   D(4,5,6,14)           179.8384         -DE/DX =    0.0                 !
 ! D25   D(13,5,6,7)          -179.9061         -DE/DX =    0.0                 !
 ! D26   D(13,5,6,14)           -0.0188         -DE/DX =    0.0                 !
 ! D27   D(5,6,7,2)             -0.0465         -DE/DX =    0.0                 !
 ! D28   D(5,6,7,15)           179.8693         -DE/DX =    0.0                 !
 ! D29   D(14,6,7,2)          -179.9341         -DE/DX =    0.0                 !
 ! D30   D(14,6,7,15)           -0.0183         -DE/DX =    0.0                 !
 --------------------------------------------------------------------------------
 GradGradGradGradGradGradGradGradGradGradGradGradGradGradGradGradGradGrad

                          Input orientation:                          
 ---------------------------------------------------------------------
 Center     Atomic      Atomic             Coordinates (Angstroms)
 Number     Number       Type             X           Y           Z
 ---------------------------------------------------------------------
      1          6           0        2.411555    0.002911   -0.004892
      2          6           0        0.907633    0.007191    0.005625
      3          6           0        0.189398    1.198094   -0.003539
      4          6           0       -1.199763    1.194785   -0.009081
      5          6           0       -1.893138   -0.005728   -0.004821
      6          6           0       -1.187478   -1.202366    0.006189
      7          6           0        0.198514   -1.192792    0.011817
      8          1           0        2.791676   -0.353280   -0.964485
      9          1           0        2.810456    1.002239    0.163774
     10          1           0        2.807050   -0.657473    0.767960
     11          1           0        0.724357    2.140621   -0.004897
     12          1           0       -1.739426    2.133218   -0.015064
     13          1           0       -2.975270   -0.011088   -0.007697
     14          1           0       -1.719410   -2.145223    0.012239
     15          1           0        0.743335   -2.130140    0.022556
 ---------------------------------------------------------------------
                    Distance matrix (angstroms):
                    1          2          3          4          5
     1  C    0.000000
     2  C    1.503965   0.000000
     3  C    2.523182   1.390753   0.000000
     4  C    3.802920   2.419032   1.389176   0.000000
     5  C    4.304702   2.800821   2.405441   1.386369   0.000000
     6  C    3.795505   2.419198   2.767325   2.397232   1.389252
     7  C    2.515459   1.393860   2.390952   2.766973   2.405079
     8  H    1.091871   2.149575   3.178369   4.386443   4.794709
     9  H    1.089140   2.153106   2.633685   4.018558   4.813338
    10  H    1.090791   2.151910   3.300067   4.482098   4.807674
    11  H    2.723314   2.141313   1.083762   2.144029   3.384981
    12  H    4.665721   3.395194   2.143584   1.082556   2.144487
    13  H    5.386845   3.882970   3.387811   2.146290   1.082149
    14  H    4.656141   3.396216   3.849878   3.380258   2.146605
    15  H    2.708066   2.143704   3.374117   3.851202   3.385981
                    6          7          8          9         10
     6  C    0.000000
     7  C    1.386036   0.000000
     8  H    4.182920   2.895244   0.000000
     9  H    4.568215   3.415185   1.763733   0.000000
    10  H    4.102859   2.768172   1.759016   1.766266   0.000000
    11  H    3.851077   3.374674   3.378484   2.382472   3.572709
    12  H    3.381009   3.849503   5.254994   4.691750   5.391802
    13  H    2.148381   3.386696   5.855784   5.876297   5.869812
    14  H    1.082574   2.141392   4.951257   5.518076   4.824246
    15  H    2.142211   1.084236   2.885687   3.755627   2.642592
                   11         12         13         14         15
    11  H    0.000000
    12  H    2.463815   0.000000
[...]
 ! D27   D(5,6,7,2)             -0.0834         -DE/DX =    0.0                 !
 ! D28   D(5,6,7,15)           179.7847         -DE/DX =    0.0                 !
 ! D29   D(14,6,7,2)          -179.891          -DE/DX =    0.0                 !
 ! D30   D(14,6,7,15)           -0.0229         -DE/DX =    0.0                 !
 --------------------------------------------------------------------------------
 GradGradGradGradGradGradGradGradGradGradGradGradGradGradGradGradGradGrad


 ----------------------------------------------------------------------

 Electric dipole moment (input orientation):
 (Debye = 10**-18 statcoulomb cm , SI units = C m)
                  (au)            (Debye)         (10**-30 SI)
   Tot        0.146109D+00      0.371373D+00      0.123877D+01
   x          0.145227D+00      0.369130D+00      0.123128D+01
   y         -0.143196D-01     -0.363969D-01     -0.121407D+00
   z         -0.721249D-02     -0.183323D-01     -0.611500D-01

 Dipole polarizability, Alpha (input orientation).
 (esu units = cm**3 , SI units = C**2 m**2 J**-1)
 Alpha(0;0):
               (au)            (10**-24 esu)      (10**-40 SI)
   iso        0.770994D+02      0.114250D+02      0.127120D+02
   aniso      0.448023D+02      0.663902D+01      0.738691D+01
   xx         0.979818D+02      0.145194D+02      0.161550D+02
   yx        -0.478496D+00     -0.709057D-01     -0.788933D-01
   yy         0.851439D+02      0.126170D+02      0.140383D+02
   zx        -0.134043D+00     -0.198631D-01     -0.221006D-01
   zy        -0.241321D+00     -0.357601D-01     -0.397885D-01
   zz         0.481725D+02      0.713843D+01      0.794257D+01

 ----------------------------------------------------------------------

 Dipole orientation:
     6         -0.16916054          0.47152726          4.52957417
     6         -0.07651019          0.19025314          1.70296323
     6          0.22460123          2.27721347          0.13418550
     6          0.33743275          2.00099289         -2.47396402
     6          0.14839824         -0.37820632         -3.55439686
     6         -0.15635934         -2.47798890         -2.00834846
     6         -0.26790292         -2.19064449          0.59268065
     1          1.53608048         -0.29888769          5.39904341
     1         -0.32204806          2.44938542          5.07802003
     1         -1.77804254         -0.54408706          5.32264923
     1          0.36998130          4.14367581          0.96457205
     1          0.57043204          3.65084423         -3.66086533
     1          0.23304579         -0.59831529         -5.58571940
     1         -0.31083938         -4.34361342         -2.83342601
     1         -0.51000839         -3.83658780          1.78862495

 Electric dipole moment (dipole orientation):
 (Debye = 10**-18 statcoulomb cm , SI units = C m)
                  (au)            (Debye)         (10**-30 SI)
   Tot        0.146109D+00      0.371373D+00      0.123877D+01
   x          0.000000D+00      0.000000D+00      0.000000D+00
   y          0.000000D+00      0.000000D+00      0.000000D+00
   z          0.146109D+00      0.371373D+00      0.123877D+01

 Dipole polarizability, Alpha (dipole orientation).
 (esu units = cm**3 , SI units = C**2 m**2 J**-1)
 Alpha(0;0):
               (au)            (10**-24 esu)      (10**-40 SI)
   iso        0.770994D+02      0.114250D+02      0.127120D+02
   aniso      0.448023D+02      0.663902D+01      0.738691D+01
   xx         0.486800D+02      0.721364D+01      0.802625D+01
   yx         0.381266D+01      0.564978D+00      0.628623D+00
   yy         0.847770D+02      0.125627D+02      0.139778D+02
   zx        -0.225569D+01     -0.334259D+00     -0.371913D+00
   zy         0.102220D+01      0.151475D+00      0.168538D+00
   zz         0.978412D+02      0.144986D+02      0.161318D+02

 ----------------------------------------------------------------------
 Unable to Open any file for archive entry.
 1\1\GINC-SSKY0945\Freq\RM062X\def2TZVP\C7H8\JVALEGRE@COLOSTATE.EDU\24-
 Nov-2021\0\\#N Geom=AllCheck Guess=TCheck SCRF=Check GenChk RM062X/def
 2TZVP Freq\\Title Card Required\\0,1\C,2.4115552261,0.0029110916,-0.00
 48921456\C,0.907633201,0.0071911215,0.0056249551\C,0.1893979305,1.1980
 936911,-0.0035386844\C,-1.1997626924,1.1947852523,-0.0090810898\C,-1.8
 931383281,-0.0057280052,-0.0048211015\C,-1.1874778102,-1.2023661739,0.
 006189087\C,0.198514053,-1.1927916122,0.0118169791\H,2.7916761355,-0.3
 532797237,-0.9644854057\H,2.8104558871,1.0022388463,0.1637744662\H,2.8
 070498896,-0.6574734434,0.7679604394\H,0.7243569493,2.1406206712,-0.00
 48974577\H,-1.7394258647,2.1332182137,-0.0150641275\H,-2.9752704397,-0
 .0110876343,-0.0076971159\H,-1.7194099087,-2.1452230756,0.0122390494\H
 ,0.7433347718,-2.1301402196,0.0225561521\\Version=ES64L-G16RevC.01\Sta
 te=1-A\HF=-271.5350172\RMSD=1.741e-09\RMSF=2.434e-05\ZeroPoint=0.12862
 97\Thermal=0.1348548\ETot=-271.4001624\HTot=-271.3992182\GTot=-271.437
 5754\Dipole=0.1452268,-0.0143196,-0.0072125\DipoleDeriv=-0.044265,0.01
 03796,0.0036106,0.0798967,0.0917498,-0.0001334,0.0556887,-0.000891,0.1
 002035,0.3826678,-0.015791,-0.0125263,-0.0285152,-0.0810931,0.0002365,
 -0.037964,0.0008039,-0.0856795,-0.1592308,0.056324,0.0024788,0.1221483
 ,0.0383318,-0.0032278,0.0026019,-0.0002249,-0.1332779,0.0197407,-0.039
 0258,0.0000484,-0.0448529,0.070558,0.000804,0.0027122,0.0000799,-0.133
 0382,0.034274,0.0000924,0.0016053,-0.0121457,-0.1040036,-0.0003721,0.0
 017344,-0.0002407,-0.1480793,0.0001326,0.0350939,-0.0006545,0.0499602,
 0.0723629,-0.0033265,0.0019807,-0.0029225,-0.1352702,-0.1555579,-0.051
 9548,0.0033375,-0.1226098,0.048725,0.0014225,0.0044978,-0.0017132,-0.1
 324911,-0.0453903,0.004281,0.0200068,0.0149868,0.0601724,-0.0536981,0.
 0731269,-0.0505935,-0.0528996,0.0075639,-0.0021085,-0.0010576,-0.10133
 66,-0.0881909,-0.0263975,-0.0218918,-0.023757,0.0689115,-0.0247554,0.0
 055781,-0.0124383,0.0413228,0.006757,0.0798215,-0.0731701,0.0745566,-0
 .0078932,0.0142233,-0.0819004,-0.0009883,-0.0678788,-0.0423555,0.00078
 17,-0.002455,-0.0012776,0.1284407,0.0202944,0.0637247,-0.0008664,0.069
 128,-0.0472684,0.001047,-0.001649,0.0001012,0.1336007,-0.0889194,-0.00
 05388,-0.0007613,-0.000758,0.0656942,0.0004651,-0.0009623,0.0004331,0.
 1390003,0.0214153,-0.0638979,-0.0000442,-0.0684988,-0.0488426,0.001269
 7,-0.000716,0.002218,0.1331095,0.0178065,0.0797436,-0.0017505,0.069153
 ,-0.0425969,0.0013076,-0.0035344,0.0034277,0.1253629\Polar=97.9818423,
 -0.4784956,85.1438796,-0.1340425,-0.2413212,48.172493\Quadrupole=2.061
 1606,1.7947176,-3.8558783,-0.0420996,-0.0099399,-0.0368962\PG=C01 [X(C
 7H8)]\NImag=0\\0.49572746,0.00758362,0.59069308,0.00543481,-0.00093433
 ,0.54612466,-0.22376503,-0.00341852,-0.00101167,0.66142924,0.00201154,
 -0.08883703,0.00013344,-0.00650662,0.67670342,0.00111750,0.00025296,-0
 .07093733,-0.00091152,-0.00316766,0.17903065,-0.02082343,0.02892456,-0
 .00061027,-0.18113698,0.04496325,-0.00045524,0.70150991,0.00303989,0.0
 0268529,-0.00014977,0.12765584,-0.27748811,0.00163599,0.03387295,0.723
 66669,0.00002550,-0.00062072,0.00596137,-0.00100075,0.00057102,-0.0697
 5806,0.00175177,-0.00221402,0.13797968,0.00086347,0.00102940,-0.000517
 64,-0.02567084,0.09047472,-0.00077156,-0.34089380,-0.03929556,-0.00054
 851,0.69327895,0.00064988,-0.00394636,0.00039545,0.02930578,0.04330440
 ,-0.00054376,0.03838733,-0.13249929,0.00069533,-0.03119542,0.73873656,
 -0.00023224,-0.00053344,0.00810006,-0.00010958,0.00016754,0.00719173,-
 0.00122931,0.00022652,-0.06410021,0.00215039,-0.00309902,0.13844792,-0
 .00118180,0.00103846,0.00051590,0.00165941,0.00011061,-0.00021914,-0.0
 2681093,-0.02904098,0.00001055,-0.18634066,-0.13188609,0.00040139,0.75
 838785,0.00151330,-0.00061495,-0.00007890,-0.00093008,-0.08654535,0.00
 052758,-0.08937797,0.04053298,-0.00092099,-0.05453761,-0.29273365,0.00
 103075,0.00346953,0.67299967,-0.00010695,0.00001275,-0.00102405,0.0001
 9592,0.00049646,-0.00774537,0.00032883,-0.00023918,0.00846997,0.000019
 33,0.00086261,-0.06426409,0.00202306,-0.00340362,0.13533933,0.00387850
 ,-0.00274584,-0.00062991,-0.02712910,-0.09078746,0.00044594,-0.0630285
 9,0.03374389,-0.00076056,0.07514273,0.03075523,-0.00000286,-0.18578087
 ,0.05237671,-0.00065140,0.69771936,-0.00212782,-0.00518711,-0.00016315
 ,-0.02877282,0.04335165,0.00004663,0.03572391,-0.02157700,0.00038231,-
 0.02950433,-0.06208927,0.00031182,0.12974008,-0.28576261,0.00198364,0.
 03414757,0.73409922,-0.00021562,0.00068056,0.00572551,0.00026041,-0.00
 065095,0.00716436,-0.00047986,0.00027095,-0.00819847,0.00039361,0.0005
 9385,0.00859312,-0.00125883,0.00180005,-0.06416507,0.00179008,-0.00449
 834,0.13787231,-0.02379758,-0.03049998,-0.00005774,-0.17484901,-0.0414
 2407,0.00006678,0.07298527,-0.02737467,0.00087490,-0.06184166,-0.03582
 298,-0.00001226,-0.02815535,0.08817744,-0.00080469,-0.34901503,-0.0402
 7802,-0.00078589,0.70941522,-0.00460724,0.00405785,0.00020594,-0.12123
 166,-0.27377524,0.00098639,0.02957403,-0.06065370,0.00079988,-0.034730
 12,-0.02248071,-0.00008518,0.02828262,0.04212636,-0.00018456,0.0375815
 0,-0.13270031,0.00065508,-0.03635016,0.71507242,0.00005572,0.00063047,
 0.00380881,0.00056184,0.00208204,-0.07132408,0.00053936,0.00008528,0.0
 1033346,-0.00033221,-0.00020918,-0.00796865,-0.00035873,0.00052602,0.0
 0832869,-0.00111480,0.00016710,-0.06257137,0.00227506,-0.00524207,0.13
 769036,-0.07392133,0.02848710,0.08113490,-0.01450600,0.01166708,0.0291
 1042,-0.00200817,-0.00149206,-0.00013820,-0.00053901,0.00013927,-0.001
 56893,-0.00037404,0.00013632,0.00021108,-0.00011139,0.00025708,-0.0012
 1654,0.00064447,0.00108816,-0.00078720,0.08387969,0.02765722,-0.074259
 15,-0.07775127,0.00120372,-0.00014795,0.00086779,0.00172295,-0.0003165
 0,0.00035466,-0.00074144,-0.00058622,0.00052384,-0.00027103,0.00117052
 ,0.00002380,0.00150430,-0.00055378,0.00006643,-0.00213096,-0.00017175,
 -0.00013225,-0.03231841,0.07642545,0.07881473,-0.07796784,-0.25392490,
 0.00035018,0.00113603,0.00315308,-0.00026375,0.00052278,-0.00018929,0.
 00003463,0.00000288,-0.00019583,-0.00021257,0.00021657,-0.00003629,0.0
 0053371,0.00002652,0.00022226,-0.00036523,-0.00053541,0.00093379,-0.08
 712315,0.08537736,0.27458123,-0.08128474,-0.08666587,-0.01545538,-0.01
 186849,-0.03171252,-0.00508127,0.00198255,-0.00215442,0.00026573,-0.00
 021576,0.00000024,0.00010982,0.00005235,0.00039059,-0.00005371,0.00008
 860,-0.00176657,0.00033362,-0.00658252,0.00175993,-0.00018507,0.003555
 73,0.01064776,0.00055980,0.09113098,-0.09100489,-0.28005234,-0.0390901
 4,0.00101070,0.00073042,0.00076776,0.00208069,0.00065465,0.00020285,-0
 .00032463,0.00022711,0.00025369,0.00001553,0.00029075,0.00001496,0.000
 41406,-0.00005756,-0.00004487,-0.00019578,0.00049405,-0.00027313,-0.00
 287686,-0.00864668,-0.00071309,0.09734898,0.30185500,-0.01637140,-0.03
 928390,-0.05341692,0.00112571,0.00122626,-0.00165845,0.00016198,-0.000
 11778,0.00009669,-0.00014065,-0.00005152,-0.00019333,-0.00008068,0.000
 26985,0.00003466,0.00044133,-0.00007503,0.00041261,0.00000549,0.000003
 43,0.00127149,-0.01104414,-0.02695385,-0.00352177,0.01645670,0.0432660
 5,0.05261363,-0.07800829,0.05566854,-0.06888568,-0.01386104,0.02134318
 ,-0.02331096,-0.00396091,-0.00175696,-0.00025730,-0.00042693,0.0007852
 9,0.00132668,-0.00022518,0.00003296,-0.00019575,-0.00003198,0.00019667
 ,0.00076420,0.00140003,0.00138417,0.00081918,0.00351079,-0.00745503,0.
 00734893,0.00378604,-0.00638624,0.00955089,0.08802275,0.05581704,-0.14
 661869,0.11747473,0.00124129,-0.00029645,-0.00175107,0.00112648,-0.000
 00332,0.00020952,-0.00026160,-0.00032854,-0.00026409,-0.00033340,0.000
 71264,-0.00005912,0.00116093,-0.00019899,-0.00051888,-0.00205584,0.000
 16887,-0.00031571,-0.00467371,0.00718530,-0.00833529,0.01083323,-0.016
 30346,0.02166915,-0.06300185,0.15533371,-0.06928465,0.11784647,-0.1824
 5146,0.00165635,-0.00241112,0.00206139,0.00018820,-0.00029818,-0.00010
 120,0.00061657,0.00006985,-0.00021772,-0.00001286,-0.00046983,-0.00001
 306,-0.00043633,0.00000398,0.00013275,0.00041760,0.00042961,0.00093684
 ,-0.01004332,0.01846331,-0.02058343,0.00329017,-0.00410920,0.00456520,
 0.07390817,-0.12919352,0.19583788,0.00150393,0.00141314,0.00013946,0.0
 0942000,0.01344427,-0.00009633,-0.12650129,-0.12053318,-0.00001095,-0.
 01037172,-0.02898788,0.00014490,-0.00569701,0.00122127,-0.00005783,-0.
 00084480,0.00085921,0.00000101,-0.00077393,0.00353740,-0.00006630,-0.0
 0002347,0.00003033,0.00000071,-0.00016696,-0.00016035,-0.00014224,-0.0
 0002887,-0.00006903,0.00004865,0.13253552,-0.00182081,0.00069346,-0.00
 025963,-0.01582062,-0.01974508,-0.00000480,-0.11957120,-0.27121190,0.0
 0038530,0.00191517,0.00351363,0.00003064,0.00038692,0.00203782,0.00000
 391,0.00112677,0.00011918,-0.00000068,0.00391823,-0.00336420,0.0000402
 4,0.00015592,0.00014868,0.00009034,0.00122763,0.00042301,0.00012757,0.
 00006701,0.00037582,0.00002872,0.12957672,0.28741399,0.00026874,0.0004
 2640,-0.00442555,-0.00026918,0.00018873,0.00421285,0.00004575,0.000214
 36,-0.03725948,-0.00001653,-0.00012232,0.00278302,-0.00006380,0.000016
 34,0.00744466,-0.00003595,0.00001523,-0.00055094,-0.00000505,0.0001536
 6,0.00647981,0.00063888,-0.00048264,0.00000627,-0.00014107,-0.00022684
 ,0.00025710,-0.00047309,0.00030444,0.00013298,0.00000796,-0.00044248,0
 .02569832,-0.00017247,0.00127617,-0.00007991,-0.00552305,-0.00111026,0
 .00002385,-0.01013996,0.02899374,-0.00016109,-0.13025235,0.12261239,-0
 .00090459,0.01206605,-0.01467741,0.00009530,-0.00064553,-0.00337443,0.
 00000054,-0.00096729,-0.00104250,-0.00001006,-0.00022914,0.00003572,0.
 00001540,0.00003523,-0.00005208,-0.00000834,-0.00035660,0.00005024,0.0
 0001824,0.00098764,-0.00043730,0.00001543,0.13398511,-0.00016646,0.000
 00301,-0.00000418,-0.00063066,0.00196472,0.00003659,-0.00204965,0.0037
 4188,-0.00000036,0.12261459,-0.27287616,0.00144068,0.01629547,-0.01819
 296,0.00014525,-0.00399208,-0.00336304,0.00004708,-0.00098466,0.000250
 78,-0.00002099,0.00003599,-0.00002096,0.00000528,0.00000992,0.00000237
 ,-0.00000179,0.00002265,-0.00001192,-0.00000909,0.00040972,0.00068430,
 -0.00002023,-0.13220856,0.28789801,0.00006621,0.00003493,0.00002596,-0
 .00013949,0.00010614,0.00750274,-0.00000713,0.00004920,0.00315260,-0.0
 0091295,0.00139126,-0.03758897,-0.00003889,0.00010233,0.00332699,0.000
 01971,0.00003295,0.00749399,-0.00002736,-0.00001870,-0.00065033,-0.000
 00663,-0.00006648,0.00003033,0.00000187,-0.00001810,-0.00005160,0.0000
 3575,0.00004183,-0.00000088,0.00002028,-0.00001212,-0.00396711,0.00097
 110,-0.00160610,0.02594374,0.00001970,-0.00005706,-0.00003897,0.000645
 13,0.00002066,0.00001994,0.00068582,-0.00320264,-0.00000234,-0.0112036
 7,0.00271109,-0.00004698,-0.34396469,-0.00139066,-0.00086050,-0.011378
 94,-0.00290690,-0.00001151,0.00059795,0.00324456,-0.00004217,0.0000174
 2,0.00003322,0.00001047,0.00001225,-0.00002678,0.00000937,0.00001645,0
 .00004413,0.00001003,-0.00066250,0.00018089,-0.00000726,0.00073053,-0.
 00027328,0.00001598,0.36443449,0.00000617,0.00019564,-0.00000669,-0.00
 003478,-0.00162351,0.00000678,-0.00242559,-0.00449110,0.00005838,-0.02
 837625,0.00492594,-0.00008697,-0.00136860,-0.05986971,0.00014463,0.028
 16600,0.00516696,0.00005890,0.00250191,-0.00443016,0.00008882,-0.00002
 999,0.00001776,0.00001841,0.00010536,0.00004659,0.00000745,-0.00006331
 ,0.00003348,-0.00002722,-0.00141504,0.00003473,-0.00001159,0.00063105,
 0.00095492,-0.00002194,0.00153118,0.05805362,0.00010056,-0.00001194,-0
 .00096499,-0.00006671,0.00000658,-0.00084347,0.00001729,0.00003528,0.0
 0762023,0.00009036,-0.00005927,0.00270422,-0.00081489,0.00014665,-0.03
 661546,-0.00026743,0.00002914,0.00258044,-0.00001638,0.00011450,0.0073
 1731,0.00015995,-0.00012273,-0.00005584,-0.00001773,-0.00005338,-0.000
 00066,-0.00010776,0.00017870,-0.00001291,-0.00001244,-0.00000311,0.000
 20528,0.00001069,-0.00002321,-0.00407249,0.00093690,-0.00020173,0.0258
 7937,-0.00013510,-0.00145954,-0.00006117,-0.00552534,0.00110908,0.0000
 0294,-0.00100869,0.00101986,-0.00002218,-0.00073020,0.00340413,-0.0000
 4068,0.01206180,0.01493154,-0.00009497,-0.12816927,-0.12127672,0.00064
 869,-0.01004919,-0.02911783,0.00021769,-0.00003143,0.00001875,0.000044
 97,-0.00049962,-0.00003696,0.00001922,0.00001234,0.00003539,-0.0000393
 8,0.00005646,-0.00010525,0.00000480,0.00041374,0.00081772,-0.00000109,
 0.00072335,-0.00064389,0.00001893,0.13186765,0.00013523,0.00001301,0.0
 0000511,0.00057713,0.00193552,0.00004079,0.00098930,0.00028805,0.00000
 740,0.00400788,-0.00331414,0.00008830,-0.01602281,-0.01812583,0.000129
 83,-0.12136590,-0.27494987,0.00158247,0.00191998,0.00350732,-0.0000102
 4,-0.00004263,-0.00001424,-0.00000028,-0.00000977,0.00000584,0.0000018
 6,-0.00003088,-0.00000514,0.00000244,-0.00009713,-0.00002251,-0.000011
 70,-0.00080258,-0.00101441,0.00000048,0.00027419,0.00094590,-0.0000401
 8,0.13087384,0.29004725,0.00006322,-0.00004440,0.00004211,-0.00014719,
 -0.00002652,0.00802862,-0.00003969,0.00000767,-0.00064367,-0.00003162,
 0.00010278,0.00729611,0.00016731,0.00017276,0.00315552,0.00064869,0.00
 163143,-0.03762690,-0.00004030,-0.00005420,0.00302354,0.00005022,0.000
 00313,-0.00000095,0.00001181,0.00000341,-0.00014726,-0.00002948,0.0000
 3678,-0.00001707,0.00000323,-0.00000127,-0.00122035,0.00000939,0.00001
 423,0.00012200,0.00001195,-0.00004118,-0.00389307,-0.00070734,-0.00175
 644,0.02601486,0.00109669,-0.00057419,0.00012328,0.01068110,-0.0136034
 8,0.00005866,-0.00085079,-0.00347570,-0.00002659,-0.00079856,-0.000858
 26,0.00001424,-0.00569691,-0.00133592,-0.00004771,-0.01069368,0.029083
 09,-0.00022391,-0.12901140,0.12062714,-0.00157229,0.00013587,0.0000629
 1,0.00025115,-0.00002564,0.00019460,0.00001676,0.00015139,0.00008672,-
 0.00033745,0.00056700,-0.00080010,0.00003038,0.00006808,0.00009931,0.0
 0000263,-0.00067328,0.00141577,-0.00003135,0.00101350,-0.00040587,0.00
 002980,0.13403662,0.00131333,0.00117430,0.00022339,0.01635130,-0.01953
 141,0.00029803,-0.00394105,-0.00332860,0.00008944,-0.00107481,0.000146
 70,-0.00000508,-0.00041630,0.00197433,0.00006865,-0.00208569,0.0037025
 1,-0.00004163,0.12059955,-0.26810160,0.00258359,-0.00053327,-0.0002304
 7,0.00015573,-0.00001448,0.00033025,-0.00008775,-0.00080620,-0.0000433
 0,-0.00032622,0.00077055,-0.00110091,-0.00000135,0.00010583,-0.0000205
 2,-0.00001567,-0.00018261,0.00003894,0.00000468,0.00042988,0.00070326,
 -0.00004817,-0.13051602,0.28428653,0.00026387,-0.00048798,-0.00264329,
 -0.00049432,0.00014201,0.00392134,0.00005206,-0.00002909,0.00663637,-0
 .00003321,-0.00002894,-0.00058738,-0.00005784,0.00006444,0.00776358,0.
 00001976,0.00010577,0.00291540,-0.00152492,0.00277164,-0.03760968,0.00
 062265,-0.00017110,-0.00041867,-0.00009528,0.00002005,-0.00026139,-0.0
 0049378,0.00052252,-0.00026930,0.00001988,0.00001737,0.00020313,0.0000
 0406,-0.00000315,-0.00126697,-0.00000491,0.00001394,0.00015203,0.00000
 958,-0.00003985,-0.00413349,0.00171241,-0.00289763,0.02559833\\-0.0001
 2175,0.00003451,-0.00002163,0.00005505,0.00002896,-0.00001300,0.000021
 74,-0.00000917,-0.00000238,-0.00001921,-0.00001918,0.00001908,-0.00000
 304,0.00002881,-0.00001003,0.00002981,-0.00001089,0.00001067,-0.000017
 28,-0.00001880,-0.00000624,0.00001101,-0.00001412,0.00001466,0.0000074
 4,-0.00001204,0.00000801,0.00002774,-0.00000707,0.00000506,-0.00000139
 ,0.00000030,0.00000250,0.00000212,0.00000147,-0.00000528,0.00000070,-0
 .00000213,0.00000111,0.00000368,-0.00000141,-0.00000189,0.00000338,0.0
 0000077,-0.00000064\\\@
 The archive entry for this job was punched.


 WE TEND TO MEET ANY NEW SITUATION BY REORGANIZING. IT CAN BE A
 WONDERFUL METHOD FOR CREATING THE ILLUSION OF PROGRESS WHILE PRODUCING
 CONFUSION, INEFFICIENCY, AND DEMORALIZATION.
     -- PETRONIUS ARBITER, 210 B.C.
 Job cpu time:       0 days  1 hours 11 minutes 35.6 seconds.
 Elapsed time:       0 days  0 hours  5 minutes 59.7 seconds.
 File lengths (MBytes):  RWF=    720 Int=      0 D2E=      0 Chk=     16 Scr=     16
 Normal termination of Gaussian 16 at Wed Nov 24 09:46:45 2021.
