 Entering Gaussian System, Link 0=g16
 Initial command:
 /hpc/apps/current/gaussian/vg16_b01_avx2.app/g16/l1.exe "/local_scratch/saa85821/16516335/Gau-13700.inp" -scrdir="/local_scratch/saa85821/16516335/"
 Entering Link 1 = /hpc/apps/current/gaussian/vg16_b01_avx2.app/g16/l1.exe PID=     13701.
  
 Copyright (c) 1988-2017, Gaussian, Inc.  All Rights Reserved.
  
 This is part of the Gaussian(R) 16 program.  It is based on
 the Gaussian(R) 09 system (copyright 2009, Gaussian, Inc.),
 the Gaussian(R) 03 system (copyright 2003, Gaussian, Inc.),
 the Gaussian(R) 98 system (copyright 1998, Gaussian, Inc.),
 the Gaussian(R) 94 system (copyright 1995, Gaussian, Inc.),
 the Gaussian 92(TM) system (copyright 1992, Gaussian, Inc.),
 the Gaussian 90(TM) system (copyright 1990, Gaussian, Inc.),
 the Gaussian 88(TM) system (copyright 1988, Gaussian, Inc.),
 the Gaussian 86(TM) system (copyright 1986, Carnegie Mellon
 University), and the Gaussian 82(TM) system (copyright 1983,
 Carnegie Mellon University). Gaussian is a federally registered
 trademark of Gaussian, Inc.
  
 This software contains proprietary and confidential information,
 including trade secrets, belonging to Gaussian, Inc.
  
 This software is provided under written license and may be
 used, copied, transmitted, or stored only in accord with that
 written license.
  
 The following legend is applicable only to US Government
 contracts under FAR:
  
                    RESTRICTED RIGHTS LEGEND
  
 Use, reproduction and disclosure by the US Government is
 subject to restrictions as set forth in subparagraphs (a)
 and (c) of the Commercial Computer Software - Restricted
 Rights clause in FAR 52.227-19.
  
 Gaussian, Inc.
 340 Quinnipiac St., Bldg. 40, Wallingford CT 06492
  
  
 ---------------------------------------------------------------
 Warning -- This program may not be used in any manner that
 competes with the business of Gaussian, Inc. or will provide
 assistance to any competitor of Gaussian, Inc.  The licensee
 of this program is prohibited from giving any competitor of
 Gaussian, Inc. access to this program.  By using this program,
 the user acknowledges that Gaussian, Inc. is engaged in the
 business of creating and licensing software in the field of
 computational chemistry and represents and warrants to the
 licensee that it is not a competitor of Gaussian, Inc. and that
 it will not use this program in any manner prohibited above.
 ---------------------------------------------------------------
  

 Cite this work as:
 Gaussian 16, Revision B.01,
 M. J. Frisch, G. W. Trucks, H. B. Schlegel, G. E. Scuseria, 
 M. A. Robb, J. R. Cheeseman, G. Scalmani, V. Barone, 
 G. A. Petersson, H. Nakatsuji, X. Li, M. Caricato, A. V. Marenich, 
 J. Bloino, B. G. Janesko, R. Gomperts, B. Mennucci, H. P. Hratchian, 
 J. V. Ortiz, A. F. Izmaylov, J. L. Sonnenberg, D. Williams-Young, 
 F. Ding, F. Lipparini, F. Egidi, J. Goings, B. Peng, A. Petrone, 
 T. Henderson, D. Ranasinghe, V. G. Zakrzewski, J. Gao, N. Rega, 
 G. Zheng, W. Liang, M. Hada, M. Ehara, K. Toyota, R. Fukuda, 
 J. Hasegawa, M. Ishida, T. Nakajima, Y. Honda, O. Kitao, H. Nakai, 
 T. Vreven, K. Throssell, J. A. Montgomery, Jr., J. E. Peralta, 
 F. Ogliaro, M. J. Bearpark, J. J. Heyd, E. N. Brothers, K. N. Kudin, 
 V. N. Staroverov, T. A. Keith, R. Kobayashi, J. Normand, 
 K. Raghavachari, A. P. Rendell, J. C. Burant, S. S. Iyengar, 
 J. Tomasi, M. Cossi, J. M. Millam, M. Klene, C. Adamo, R. Cammi, 
 J. W. Ochterski, R. L. Martin, K. Morokuma, O. Farkas, 
 J. B. Foresman, and D. J. Fox, Gaussian, Inc., Wallingford CT, 2016.
 
 ******************************************
 Gaussian 16:  ES64L-G16RevB.01 20-Dec-2017
                23-Jun-2022 
 ******************************************
 %nprocshared=24
 Will use up to   24 processors via shared memory.
 %mem=16GB
 Default route: MaxDisk=256GB
 ----------------------------------------------------------------------
 # m062x def2svp nosymm int=(ultrafine) scrf=(smd,solvent=tetrahydrofur
 an) opt freq=(noraman)
 ----------------------------------------------------------------------
 1/18=20,19=15,26=6,38=1/1,3;
 2/9=110,12=2,15=1,17=6,18=5,40=1/2;
 3/5=43,7=101,11=2,25=1,30=1,70=32201,71=1,72=20,74=-55,75=-5/1,2,3;
 4//1;
 5/5=2,38=5,53=20/2;
 6/7=2,8=2,9=2,10=2,28=1/1;
 7/30=1/1,2,3,16;
 1/18=20,19=15,26=6/3(2);
 2/9=110,15=1/2;
 99//99;
 2/9=110,15=1/2;
 3/5=43,7=101,11=2,25=1,30=1,70=32205,71=1,72=20,74=-55,75=-5/1,2,3;
 4/5=5,16=3,69=1/1;
 5/5=2,38=5,53=20/2;
 7/30=1/1,2,3,16;
 1/18=20,19=15,26=6/3(-5);
 2/9=110,15=1/2;
 6/7=2,8=2,9=2,10=2,19=2,28=1/1;
 99/9=1/99;
 -------------------------
 RR-crest_clustered_conf_1
 -------------------------
 Symbolic Z-matrix:
 Charge =  0 Multiplicity = 1
 C                     1.8605   -1.6486   -2.1611 
 C                     1.4107   -0.3871   -1.4112 
 C                    -0.097    -0.4373   -1.1481 
 N                    -0.38     -1.4411   -0.1479 
 C                    -1.7649   -1.8612   -0.0819 
 C                    -2.782    -0.7615    0.2621 
 C                    -4.2251   -1.2385    0.0715 
 C                    -5.1916   -0.0869    0.1015 
 C                    -6.1484    0.0345    1.1013 
 C                    -7.0361    1.0978    1.1079 
 C                    -6.9727    2.0621    0.1168 
 C                    -6.0192    1.9544   -0.8843 
 C                    -5.1421    0.8862   -0.8925 
 C                     0.1736   -0.9757    1.1009 
 C                     1.7014   -0.8806    1.0195 
 C                     2.3638   -2.2601    1.1184 
 N                     2.1323   -0.1537   -0.1682 
 C                     3.4115    0.3645   -0.215 
 C                     4.0021    0.7832   -1.4213 
 C                     5.2584    1.3482   -1.4514 
 C                     6.0034    1.5218   -0.297 
 C                     5.4444    1.1087    0.9029 
 O                     6.1027    1.2311    2.0955 
 C                     4.1795    0.5397    0.9431 
 H                     2.9407   -1.7607   -2.1085 
 H                     1.5647   -1.5803   -3.2056 
 H                     1.3865   -2.5241   -1.7262 
 H                     1.5778    0.492    -2.0446 
 H                    -0.4193    0.5655   -0.819 
 H                    -0.6128   -0.6835   -2.0755 
 H                    -2.0141   -2.2829   -1.0605 
 H                    -1.8278   -2.6653    0.656 
 H                    -2.6406   -0.4297    1.2935 
 H                    -2.6066    0.0966   -0.389 
 H                    -4.4794   -1.9627    0.8477 
 H                    -4.3048   -1.738    -0.8977 
 H                    -6.2044   -0.7172    1.8776 
 H                    -7.7816    1.1715    1.888 
 H                    -7.6623    2.8916    0.1173 
 H                    -5.9648    2.7031   -1.6624 
 H                    -4.4117    0.8009   -1.6858 
 H                    -0.2209    0.023     1.3652 
 H                    -0.0921   -1.6689    1.8995 
 H                     2.0017   -0.2896    1.8913 
 H                     2.0474   -2.8992    0.2984 
 H                     3.4478   -2.1413    1.0783 
 H                     2.098    -2.7346    2.0601 
 H                     3.4898    0.6649   -2.3599 
 H                     5.6732    1.6522   -2.4016 
 H                     6.99      1.9621   -0.3361 
 H                     7.0034    1.5549    1.945 
 H                     3.8386    0.2496    1.9233 
 

 GradGradGradGradGradGradGradGradGradGradGradGradGradGradGradGradGradGrad
 Berny optimization.
 Initialization pass.
                           ----------------------------
                           !    Initial Parameters    !
                           ! (Angstroms and Degrees)  !
 --------------------------                            --------------------------
 ! Name  Definition              Value          Derivative Info.                !
 --------------------------------------------------------------------------------
 ! R1    R(1,2)                  1.5349         estimate D2E/DX2                !
 ! R2    R(1,25)                 1.0873         estimate D2E/DX2                !
 ! R3    R(1,26)                 1.0877         estimate D2E/DX2                !
 ! R4    R(1,27)                 1.0864         estimate D2E/DX2                !
 ! R5    R(2,3)                  1.5313         estimate D2E/DX2                !
 ! R6    R(2,17)                 1.4561         estimate D2E/DX2                !
 ! R7    R(2,28)                 1.0963         estimate D2E/DX2                !
 ! R8    R(3,4)                  1.445          estimate D2E/DX2                !
 ! R9    R(3,29)                 1.1035         estimate D2E/DX2                !
 ! R10   R(3,30)                 1.0894         estimate D2E/DX2                !
 ! R11   R(4,5)                  1.4487         estimate D2E/DX2                !
 ! R12   R(4,14)                 1.4431         estimate D2E/DX2                !
 ! R13   R(5,6)                  1.5369         estimate D2E/DX2                !
 ! R14   R(5,31)                 1.0943         estimate D2E/DX2                !
 ! R15   R(5,32)                 1.0932         estimate D2E/DX2                !
 ! R16   R(6,7)                  1.5318         estimate D2E/DX2                !
 ! R17   R(6,33)                 1.0926         estimate D2E/DX2                !
 ! R18   R(6,34)                 1.0913         estimate D2E/DX2                !
 ! R19   R(7,8)                  1.5037         estimate D2E/DX2                !
 ! R20   R(7,35)                 1.0916         estimate D2E/DX2                !
 ! R21   R(7,36)                 1.0933         estimate D2E/DX2                !
 ! R22   R(8,9)                  1.3892         estimate D2E/DX2                !
 ! R23   R(8,13)                 1.3919         estimate D2E/DX2                !
 ! R24   R(9,10)                 1.3852         estimate D2E/DX2                !
 ! R25   R(9,37)                 1.082          estimate D2E/DX2                !
 ! R26   R(10,11)                1.3843         estimate D2E/DX2                !
 ! R27   R(10,38)                1.0816         estimate D2E/DX2                !
 ! R28   R(11,12)                1.3867         estimate D2E/DX2                !
 ! R29   R(11,39)                1.0787         estimate D2E/DX2                !
 ! R30   R(12,13)                1.3822         estimate D2E/DX2                !
 ! R31   R(12,40)                1.0812         estimate D2E/DX2                !
 ! R32   R(13,41)                1.0817         estimate D2E/DX2                !
 ! R33   R(14,15)                1.5329         estimate D2E/DX2                !
 ! R34   R(14,42)                1.1058         estimate D2E/DX2                !
 ! R35   R(14,43)                1.0904         estimate D2E/DX2                !
 ! R36   R(15,16)                1.5335         estimate D2E/DX2                !
 ! R37   R(15,17)                1.4576         estimate D2E/DX2                !
 ! R38   R(15,44)                1.0952         estimate D2E/DX2                !
 ! R39   R(16,45)                1.0867         estimate D2E/DX2                !
 ! R40   R(16,46)                1.0912         estimate D2E/DX2                !
 ! R41   R(16,47)                1.0875         estimate D2E/DX2                !
 ! R42   R(17,18)                1.381          estimate D2E/DX2                !
 ! R43   R(18,19)                1.4069         estimate D2E/DX2                !
 ! R44   R(18,24)                1.4006         estimate D2E/DX2                !
 ! R45   R(19,20)                1.3778         estimate D2E/DX2                !
 ! R46   R(19,48)                1.0758         estimate D2E/DX2                !
 ! R47   R(20,21)                1.3848         estimate D2E/DX2                !
 ! R48   R(20,49)                1.0804         estimate D2E/DX2                !
 ! R49   R(21,22)                1.3867         estimate D2E/DX2                !
 ! R50   R(21,50)                1.0811         estimate D2E/DX2                !
 ! R51   R(22,23)                1.3677         estimate D2E/DX2                !
 ! R52   R(22,24)                1.3876         estimate D2E/DX2                !
 ! R53   R(23,51)                0.9689         estimate D2E/DX2                !
 ! R54   R(24,52)                1.0776         estimate D2E/DX2                !
 ! A1    A(2,1,25)             110.624          estimate D2E/DX2                !
 ! A2    A(2,1,26)             109.7455         estimate D2E/DX2                !
 ! A3    A(2,1,27)             109.8083         estimate D2E/DX2                !
 ! A4    A(25,1,26)            108.8508         estimate D2E/DX2                !
 ! A5    A(25,1,27)            109.3298         estimate D2E/DX2                !
 ! A6    A(26,1,27)            108.4424         estimate D2E/DX2                !
 ! A7    A(1,2,3)              110.2136         estimate D2E/DX2                !
 ! A8    A(1,2,17)             113.8013         estimate D2E/DX2                !
 ! A9    A(1,2,28)             109.3955         estimate D2E/DX2                !
 ! A10   A(3,2,17)             110.2744         estimate D2E/DX2                !
 ! A11   A(3,2,28)             105.999          estimate D2E/DX2                !
 ! A12   A(17,2,28)            106.8058         estimate D2E/DX2                !
 ! A13   A(2,3,4)              109.5434         estimate D2E/DX2                !
 ! A14   A(2,3,29)             107.9994         estimate D2E/DX2                !
 ! A15   A(2,3,30)             109.1065         estimate D2E/DX2                !
 ! A16   A(4,3,29)             111.5694         estimate D2E/DX2                !
 ! A17   A(4,3,30)             109.8482         estimate D2E/DX2                !
 ! A18   A(29,3,30)            108.7214         estimate D2E/DX2                !
 ! A19   A(3,4,5)              114.8464         estimate D2E/DX2                !
 ! A20   A(3,4,14)             107.4464         estimate D2E/DX2                !
 ! A21   A(5,4,14)             114.8858         estimate D2E/DX2                !
 ! A22   A(4,5,6)              115.8063         estimate D2E/DX2                !
 ! A23   A(4,5,31)             106.7794         estimate D2E/DX2                !
 ! A24   A(4,5,32)             107.4008         estimate D2E/DX2                !
 ! A25   A(6,5,31)             108.9761         estimate D2E/DX2                !
 ! A26   A(6,5,32)             109.7032         estimate D2E/DX2                !
 ! A27   A(31,5,32)            107.8825         estimate D2E/DX2                !
 ! A28   A(5,6,7)              111.8879         estimate D2E/DX2                !
 ! A29   A(5,6,33)             110.0545         estimate D2E/DX2                !
 ! A30   A(5,6,34)             108.8264         estimate D2E/DX2                !
 ! A31   A(7,6,33)             109.5077         estimate D2E/DX2                !
 ! A32   A(7,6,34)             108.7854         estimate D2E/DX2                !
 ! A33   A(33,6,34)            107.6738         estimate D2E/DX2                !
 ! A34   A(6,7,8)              111.3804         estimate D2E/DX2                !
 ! A35   A(6,7,35)             109.7296         estimate D2E/DX2                !
 ! A36   A(6,7,36)             108.7396         estimate D2E/DX2                !
 ! A37   A(8,7,35)             110.13           estimate D2E/DX2                !
 ! A38   A(8,7,36)             108.7072         estimate D2E/DX2                !
 ! A39   A(35,7,36)            108.0759         estimate D2E/DX2                !
 ! A40   A(7,8,9)              121.599          estimate D2E/DX2                !
 ! A41   A(7,8,13)             119.8873         estimate D2E/DX2                !
 ! A42   A(9,8,13)             118.5132         estimate D2E/DX2                !
 ! A43   A(8,9,10)             120.7913         estimate D2E/DX2                !
 ! A44   A(8,9,37)             119.4247         estimate D2E/DX2                !
 ! A45   A(10,9,37)            119.7815         estimate D2E/DX2                !
 ! A46   A(9,10,11)            120.1316         estimate D2E/DX2                !
 ! A47   A(9,10,38)            119.8338         estimate D2E/DX2                !
 ! A48   A(11,10,38)           120.0344         estimate D2E/DX2                !
 ! A49   A(10,11,12)           119.6217         estimate D2E/DX2                !
 ! A50   A(10,11,39)           120.4023         estimate D2E/DX2                !
 ! A51   A(12,11,39)           119.9753         estimate D2E/DX2                !
 ! A52   A(11,12,13)           120.0424         estimate D2E/DX2                !
 ! A53   A(11,12,40)           120.0243         estimate D2E/DX2                !
 ! A54   A(13,12,40)           119.9324         estimate D2E/DX2                !
 ! A55   A(8,13,12)            120.8969         estimate D2E/DX2                !
 ! A56   A(8,13,41)            119.5122         estimate D2E/DX2                !
 ! A57   A(12,13,41)           119.5894         estimate D2E/DX2                !
 ! A58   A(4,14,15)            110.8787         estimate D2E/DX2                !
 ! A59   A(4,14,42)            111.1753         estimate D2E/DX2                !
 ! A60   A(4,14,43)            109.5903         estimate D2E/DX2                !
 ! A61   A(15,14,42)           108.1927         estimate D2E/DX2                !
 ! A62   A(15,14,43)           108.7356         estimate D2E/DX2                !
 ! A63   A(42,14,43)           108.1904         estimate D2E/DX2                !
 ! A64   A(14,15,16)           111.7946         estimate D2E/DX2                !
 ! A65   A(14,15,17)           111.6438         estimate D2E/DX2                !
 ! A66   A(14,15,44)           105.3364         estimate D2E/DX2                !
 ! A67   A(16,15,17)           111.9296         estimate D2E/DX2                !
 ! A68   A(16,15,44)           108.4005         estimate D2E/DX2                !
 ! A69   A(17,15,44)           107.3641         estimate D2E/DX2                !
 ! A70   A(15,16,45)           110.77           estimate D2E/DX2                !
 ! A71   A(15,16,46)           109.1954         estimate D2E/DX2                !
 ! A72   A(15,16,47)           110.0468         estimate D2E/DX2                !
 ! A73   A(45,16,46)           108.9971         estimate D2E/DX2                !
 ! A74   A(45,16,47)           109.0048         estimate D2E/DX2                !
 ! A75   A(46,16,47)           108.7915         estimate D2E/DX2                !
 ! A76   A(2,17,15)            117.978          estimate D2E/DX2                !
 ! A77   A(2,17,18)            119.3582         estimate D2E/DX2                !
 ! A78   A(15,17,18)           119.2469         estimate D2E/DX2                !
 ! A79   A(17,18,19)           121.9782         estimate D2E/DX2                !
 ! A80   A(17,18,24)           121.7922         estimate D2E/DX2                !
 ! A81   A(19,18,24)           116.2033         estimate D2E/DX2                !
 ! A82   A(18,19,20)           121.5701         estimate D2E/DX2                !
 ! A83   A(18,19,48)           121.0264         estimate D2E/DX2                !
 ! A84   A(20,19,48)           117.4012         estimate D2E/DX2                !
 ! A85   A(19,20,21)           121.5813         estimate D2E/DX2                !
 ! A86   A(19,20,49)           118.9892         estimate D2E/DX2                !
 ! A87   A(21,20,49)           119.4263         estimate D2E/DX2                !
 ! A88   A(20,21,22)           117.8463         estimate D2E/DX2                !
 ! A89   A(20,21,50)           120.787          estimate D2E/DX2                !
 ! A90   A(22,21,50)           121.3663         estimate D2E/DX2                !
 ! A91   A(21,22,23)           122.2644         estimate D2E/DX2                !
 ! A92   A(21,22,24)           120.9782         estimate D2E/DX2                !
 ! A93   A(23,22,24)           116.7565         estimate D2E/DX2                !
 ! A94   A(22,23,51)           109.9928         estimate D2E/DX2                !
 ! A95   A(18,24,22)           121.8162         estimate D2E/DX2                !
 ! A96   A(18,24,52)           123.024          estimate D2E/DX2                !
 ! A97   A(22,24,52)           115.1597         estimate D2E/DX2                !
 ! D1    D(25,1,2,3)          -164.1269         estimate D2E/DX2                !
 ! D2    D(25,1,2,17)          -39.6561         estimate D2E/DX2                !
 ! D3    D(25,1,2,28)           79.7047         estimate D2E/DX2                !
 ! D4    D(26,1,2,3)            75.7482         estimate D2E/DX2                !
 ! D5    D(26,1,2,17)         -159.7809         estimate D2E/DX2                !
 ! D6    D(26,1,2,28)          -40.4202         estimate D2E/DX2                !
 ! D7    D(27,1,2,3)           -43.3651         estimate D2E/DX2                !
 ! D8    D(27,1,2,17)           81.1057         estimate D2E/DX2                !
 ! D9    D(27,1,2,28)         -159.5335         estimate D2E/DX2                !
 ! D10   D(1,2,3,4)             70.7925         estimate D2E/DX2                !
 ! D11   D(1,2,3,29)          -167.5049         estimate D2E/DX2                !
 ! D12   D(1,2,3,30)           -49.4895         estimate D2E/DX2                !
 ! D13   D(17,2,3,4)           -55.6823         estimate D2E/DX2                !
 ! D14   D(17,2,3,29)           66.0202         estimate D2E/DX2                !
 ! D15   D(17,2,3,30)         -175.9643         estimate D2E/DX2                !
 ! D16   D(28,2,3,4)          -170.9319         estimate D2E/DX2                !
 ! D17   D(28,2,3,29)          -49.2293         estimate D2E/DX2                !
 ! D18   D(28,2,3,30)           68.7861         estimate D2E/DX2                !
 ! D19   D(1,2,17,15)          -81.8559         estimate D2E/DX2                !
 ! D20   D(1,2,17,18)           77.1419         estimate D2E/DX2                !
 ! D21   D(3,2,17,15)           42.5822         estimate D2E/DX2                !
 ! D22   D(3,2,17,18)         -158.42           estimate D2E/DX2                !
 ! D23   D(28,2,17,15)         157.3224         estimate D2E/DX2                !
 ! D24   D(28,2,17,18)         -43.6798         estimate D2E/DX2                !
 ! D25   D(2,3,4,5)           -163.0438         estimate D2E/DX2                !
 ! D26   D(2,3,4,14)            67.7865         estimate D2E/DX2                !
 ! D27   D(29,3,4,5)            77.424          estimate D2E/DX2                !
 ! D28   D(29,3,4,14)          -51.7457         estimate D2E/DX2                !
 ! D29   D(30,3,4,5)           -43.2151         estimate D2E/DX2                !
 ! D30   D(30,3,4,14)         -172.3849         estimate D2E/DX2                !
 ! D31   D(3,4,5,6)            -61.0503         estimate D2E/DX2                !
 ! D32   D(3,4,5,31)            60.4876         estimate D2E/DX2                !
 ! D33   D(3,4,5,32)           175.9932         estimate D2E/DX2                !
 ! D34   D(14,4,5,6)            64.3309         estimate D2E/DX2                !
 ! D35   D(14,4,5,31)         -174.1312         estimate D2E/DX2                !
 ! D36   D(14,4,5,32)          -58.6256         estimate D2E/DX2                !
 ! D37   D(3,4,14,15)          -64.6315         estimate D2E/DX2                !
 ! D38   D(3,4,14,42)           55.7737         estimate D2E/DX2                !
 ! D39   D(3,4,14,43)          175.3257         estimate D2E/DX2                !
 ! D40   D(5,4,14,15)          166.2212         estimate D2E/DX2                !
 ! D41   D(5,4,14,42)          -73.3736         estimate D2E/DX2                !
 ! D42   D(5,4,14,43)           46.1784         estimate D2E/DX2                !
 ! D43   D(4,5,6,7)            170.1015         estimate D2E/DX2                !
 ! D44   D(4,5,6,33)           -67.9089         estimate D2E/DX2                !
 ! D45   D(4,5,6,34)            49.861          estimate D2E/DX2                !
 ! D46   D(31,5,6,7)            49.7455         estimate D2E/DX2                !
 ! D47   D(31,5,6,33)          171.735          estimate D2E/DX2                !
 ! D48   D(31,5,6,34)          -70.4951         estimate D2E/DX2                !
 ! D49   D(32,5,6,7)           -68.1622         estimate D2E/DX2                !
 ! D50   D(32,5,6,33)           53.8274         estimate D2E/DX2                !
 ! D51   D(32,5,6,34)          171.5973         estimate D2E/DX2                !
 ! D52   D(5,6,7,8)           -166.9871         estimate D2E/DX2                !
 ! D53   D(5,6,7,35)            70.8018         estimate D2E/DX2                !
 ! D54   D(5,6,7,36)           -47.2161         estimate D2E/DX2                !
 ! D55   D(33,6,7,8)            70.7104         estimate D2E/DX2                !
 ! D56   D(33,6,7,35)          -51.5007         estimate D2E/DX2                !
 ! D57   D(33,6,7,36)         -169.5186         estimate D2E/DX2                !
 ! D58   D(34,6,7,8)           -46.7226         estimate D2E/DX2                !
 ! D59   D(34,6,7,35)         -168.9338         estimate D2E/DX2                !
 ! D60   D(34,6,7,36)           73.0484         estimate D2E/DX2                !
 ! D61   D(6,7,8,9)           -115.4715         estimate D2E/DX2                !
 ! D62   D(6,7,8,13)            64.7798         estimate D2E/DX2                !
 ! D63   D(35,7,8,9)             6.5082         estimate D2E/DX2                !
 ! D64   D(35,7,8,13)         -173.2405         estimate D2E/DX2                !
 ! D65   D(36,7,8,9)           124.7384         estimate D2E/DX2                !
 ! D66   D(36,7,8,13)          -55.0103         estimate D2E/DX2                !
 ! D67   D(7,8,9,10)          -179.5836         estimate D2E/DX2                !
 ! D68   D(7,8,9,37)            -0.1636         estimate D2E/DX2                !
 ! D69   D(13,8,9,10)            0.1685         estimate D2E/DX2                !
 ! D70   D(13,8,9,37)          179.5885         estimate D2E/DX2                !
 ! D71   D(7,8,13,12)         -179.9148         estimate D2E/DX2                !
 ! D72   D(7,8,13,41)            0.5279         estimate D2E/DX2                !
 ! D73   D(9,8,13,12)            0.3288         estimate D2E/DX2                !
 ! D74   D(9,8,13,41)         -179.2286         estimate D2E/DX2                !
 ! D75   D(8,9,10,11)           -0.4515         estimate D2E/DX2                !
 ! D76   D(8,9,10,38)          179.3567         estimate D2E/DX2                !
 ! D77   D(37,9,10,11)        -179.8694         estimate D2E/DX2                !
 ! D78   D(37,9,10,38)          -0.0612         estimate D2E/DX2                !
 ! D79   D(9,10,11,12)           0.2363         estimate D2E/DX2                !
 ! D80   D(9,10,11,39)         179.9552         estimate D2E/DX2                !
 ! D81   D(38,10,11,12)       -179.5715         estimate D2E/DX2                !
 ! D82   D(38,10,11,39)          0.1474         estimate D2E/DX2                !
 ! D83   D(10,11,12,13)          0.256          estimate D2E/DX2                !
 ! D84   D(10,11,12,40)        179.9116         estimate D2E/DX2                !
 ! D85   D(39,11,12,13)       -179.4641         estimate D2E/DX2                !
 ! D86   D(39,11,12,40)          0.1915         estimate D2E/DX2                !
 ! D87   D(11,12,13,8)          -0.5434         estimate D2E/DX2                !
 ! D88   D(11,12,13,41)        179.0136         estimate D2E/DX2                !
 ! D89   D(40,12,13,8)         179.8007         estimate D2E/DX2                !
 ! D90   D(40,12,13,41)         -0.6423         estimate D2E/DX2                !
 ! D91   D(4,14,15,16)         -76.6091         estimate D2E/DX2                !
 ! D92   D(4,14,15,17)          49.6471         estimate D2E/DX2                !
 ! D93   D(4,14,15,44)         165.8635         estimate D2E/DX2                !
 ! D94   D(42,14,15,16)        161.2295         estimate D2E/DX2                !
 ! D95   D(42,14,15,17)        -72.5143         estimate D2E/DX2                !
 ! D96   D(42,14,15,44)         43.7021         estimate D2E/DX2                !
 ! D97   D(43,14,15,16)         43.9421         estimate D2E/DX2                !
 ! D98   D(43,14,15,17)        170.1983         estimate D2E/DX2                !
 ! D99   D(43,14,15,44)        -73.5853         estimate D2E/DX2                !
 ! D100  D(14,15,16,45)         61.1992         estimate D2E/DX2                !
 ! D101  D(14,15,16,46)       -178.7558         estimate D2E/DX2                !
 ! D102  D(14,15,16,47)        -59.407          estimate D2E/DX2                !
 ! D103  D(17,15,16,45)        -64.9008         estimate D2E/DX2                !
 ! D104  D(17,15,16,46)         55.1443         estimate D2E/DX2                !
 ! D105  D(17,15,16,47)        174.493          estimate D2E/DX2                !
 ! D106  D(44,15,16,45)        176.8709         estimate D2E/DX2                !
 ! D107  D(44,15,16,46)        -63.0841         estimate D2E/DX2                !
 ! D108  D(44,15,16,47)         56.2647         estimate D2E/DX2                !
 ! D109  D(14,15,17,2)         -39.7011         estimate D2E/DX2                !
 ! D110  D(14,15,17,18)        161.2771         estimate D2E/DX2                !
 ! D111  D(16,15,17,2)          86.4812         estimate D2E/DX2                !
 ! D112  D(16,15,17,18)        -72.5406         estimate D2E/DX2                !
 ! D113  D(44,15,17,2)        -154.6755         estimate D2E/DX2                !
 ! D114  D(44,15,17,18)         46.3027         estimate D2E/DX2                !
 ! D115  D(2,17,18,19)           5.5453         estimate D2E/DX2                !
 ! D116  D(2,17,18,24)        -176.3919         estimate D2E/DX2                !
 ! D117  D(15,17,18,19)        164.2755         estimate D2E/DX2                !
 ! D118  D(15,17,18,24)        -17.6617         estimate D2E/DX2                !
 ! D119  D(17,18,19,20)        177.3744         estimate D2E/DX2                !
 ! D120  D(17,18,19,48)         -3.1895         estimate D2E/DX2                !
 ! D121  D(24,18,19,20)         -0.7904         estimate D2E/DX2                !
 ! D122  D(24,18,19,48)        178.6456         estimate D2E/DX2                !
 ! D123  D(17,18,24,22)       -177.4297         estimate D2E/DX2                !
 ! D124  D(17,18,24,52)          2.4076         estimate D2E/DX2                !
 ! D125  D(19,18,24,22)          0.7389         estimate D2E/DX2                !
 ! D126  D(19,18,24,52)       -179.4239         estimate D2E/DX2                !
 ! D127  D(18,19,20,21)          0.4809         estimate D2E/DX2                !
 ! D128  D(18,19,20,49)        179.8191         estimate D2E/DX2                !
 ! D129  D(48,19,20,21)       -178.9747         estimate D2E/DX2                !
 ! D130  D(48,19,20,49)          0.3634         estimate D2E/DX2                !
 ! D131  D(19,20,21,22)         -0.0726         estimate D2E/DX2                !
 ! D132  D(19,20,21,50)        179.6906         estimate D2E/DX2                !
 ! D133  D(49,20,21,22)       -179.408          estimate D2E/DX2                !
 ! D134  D(49,20,21,50)          0.3552         estimate D2E/DX2                !
 ! D135  D(20,21,22,23)        179.6687         estimate D2E/DX2                !
 ! D136  D(20,21,22,24)          0.0188         estimate D2E/DX2                !
 ! D137  D(50,21,22,23)         -0.093          estimate D2E/DX2                !
 ! D138  D(50,21,22,24)       -179.7429         estimate D2E/DX2                !
 ! D139  D(21,22,23,51)         -5.3056         estimate D2E/DX2                !
 ! D140  D(24,22,23,51)        174.3583         estimate D2E/DX2                !
 ! D141  D(21,22,24,18)         -0.3746         estimate D2E/DX2                !
 ! D142  D(21,22,24,52)        179.7762         estimate D2E/DX2                !
 ! D143  D(23,22,24,18)        179.957          estimate D2E/DX2                !
 ! D144  D(23,22,24,52)          0.1077         estimate D2E/DX2                !
 --------------------------------------------------------------------------------
 Trust Radius=3.00D-01 FncErr=5.00D-06 GrdErr=5.00D-06 EigMax=2.50D+02 EigMin=1.00D-04
 Number of steps in this run=    305 maximum allowed number of steps=    312.
 GradGradGradGradGradGradGradGradGradGradGradGradGradGradGradGradGradGrad

 Symmetry turned off by external request.
 Stoichiometry    C21H28N2O
 Framework group  C1[X(C21H28N2O)]
 Deg. of freedom   150
 Full point group                 C1      NOp   1
                          Input orientation:                          
 ---------------------------------------------------------------------
 Center     Atomic      Atomic             Coordinates (Angstroms)
 Number     Number       Type             X           Y           Z
 ---------------------------------------------------------------------
      1          6           0        2.089444   -1.715900   -2.139032
      2          6           0        1.541262   -0.438557   -1.496721
      3          6           0        0.019055   -0.487593   -1.365567
      4          7           0       -0.373131   -1.373472   -0.290878
      5          6           0       -1.771869   -1.764930   -0.298135
      6          6           0       -2.796487   -0.645439   -0.094267
      7          6           0       -4.230600   -1.182673   -0.135205
      8          6           0       -5.258712   -0.097262    0.063646
      9          6           0       -5.719190    0.229720    1.345291
     10          6           0       -6.632060    1.267393    1.535691
     11          6           0       -7.099126    1.998795    0.443081
     12          6           0       -6.647504    1.683720   -0.839229
     13          6           0       -5.735146    0.645125   -1.024675
     14          6           0        0.099643   -0.820318    0.959781
     15          6           0        1.627316   -0.795726    0.994957
     16          6           0        2.203151   -2.197929    1.212521
     17          7           0        2.156767   -0.131255   -0.200937
     18          6           0        3.453049    0.360908   -0.175048
     19          6           0        4.106916    0.805268   -1.354162
     20          6           0        5.388885    1.339633   -1.295466
     21          6           0        6.090714    1.451545   -0.097022
     22          6           0        5.466674    0.995240    1.066767
     23          8           0        6.073786    1.047377    2.275434
     24          6           0        4.180953    0.453515    1.031976
     25          1           0        3.186414   -1.756366   -2.071835
     26          1           0        1.810560   -1.755772   -3.202807
     27          1           0        1.674037   -2.604808   -1.644801
     28          1           0        1.749405    0.410429   -2.160681
     29          1           0       -0.357442    0.544534   -1.201062
     30          1           0       -0.401167   -0.850810   -2.315953
     31          1           0       -1.976484   -2.265333   -1.259909
     32          1           0       -1.913324   -2.525747    0.488364
     33          1           0       -2.627134   -0.145825    0.874051
     34          1           0       -2.678521    0.125102   -0.874285
     35          1           0       -4.350517   -1.951179    0.645051
     36          1           0       -4.401450   -1.678634   -1.104181
     37          1           0       -5.358492   -0.341604    2.204717
     38          1           0       -6.982273    1.504216    2.542297
     39          1           0       -7.815129    2.809420    0.589812
     40          1           0       -7.010218    2.247976   -1.700651
     41          1           0       -5.387406    0.400550   -2.031933
     42          1           0       -0.277505    0.212661    1.116929
     43          1           0       -0.258396   -1.439600    1.796539
     44          1           0        1.890116   -0.165726    1.854739
     45          1           0        1.736093   -2.915280    0.523793
     46          1           0        3.291035   -2.212632    1.052369
     47          1           0        2.004816   -2.534218    2.241342
     48          1           0        3.625743    0.732146   -2.325894
     49          1           0        5.859226    1.675682   -2.222096
     50          1           0        7.099266    1.868410   -0.060982
     51          1           0        6.955989    1.429075    2.173385
     52          1           0        3.780567    0.105948    1.981184
 ---------------------------------------------------------------------
 Rotational constants (GHZ):           0.5414822           0.0771094           0.0757434
 Standard basis: def2SVP (5D, 7F)
   476 basis functions,   796 primitive gaussians,   500 cartesian basis functions
    88 alpha electrons       88 beta electrons
       nuclear repulsion energy      1969.8563795810 Hartrees.
 NAtoms=   52 NActive=   52 NUniq=   52 SFac= 1.00D+00 NAtFMM=   60 NAOKFM=F Big=F
 Integral buffers will be    131072 words long.
 Raffenetti 2 integral format.
 Two-electron integral symmetry is turned off.
 ------------------------------------------------------------------------------
 Polarizable Continuum Model (PCM)
 =================================
 Model                : PCM.
 Atomic radii         : SMD-Coulomb.
 Polarization charges : Total charges.
 Charge compensation  : None.
 Solution method      : On-the-fly selection.
 Cavity type          : VdW (van der Waals Surface) (Alpha=1.000).
 Cavity algorithm     : GePol (No added spheres)
                        Default sphere list used, NSphG=   52.
                        Lebedev-Laikov grids with approx.  5.0 points / Ang**2.
                        Smoothing algorithm: York/Karplus (Gamma=1.0000).
                        Polarization charges: spherical gaussians, with
                                              point-specific exponents (IZeta= 3).
                        Self-potential: point-specific (ISelfS= 7).
                        Self-field    : sphere-specific E.n sum rule (ISelfD= 2).
 1st derivatives      : Analytical E(r).r(x)/FMM algorithm (CHGder, D1EAlg=3).
                        Cavity 1st derivative terms included.
 Solvent              : TetraHydroFuran, Eps=   7.425700 Eps(inf)=   1.974025
 ------------------------------------------------------------------------------
 ------------------------------------------------------------------------------
 Atomic radii for non-electrostatic terms: SMD-CDS.
 ------------------------------------------------------------------------------
 Nuclear repulsion after PCM non-electrostatic terms =     1969.8462166060 Hartrees.
 One-electron integrals computed using PRISM.
   1 Symmetry operations used in ECPInt.
 ECPInt:  NShTT=   26106 NPrTT=   92202 LenC2=   21399 LenP2D=   51962.
 LDataN:  DoStor=T MaxTD1= 4 Len=   56
 NBasis=   476 RedAO= T EigKep=  2.43D-04  NBF=   476
 NBsUse=   476 1.00D-06 EigRej= -1.00D+00 NBFU=   476
 Initial guess from the checkpoint file:  "/local_scratch/saa85821/16516335/Gau-13701.chk"
 B after Tr=     0.000016   -0.000179    0.000134
         Rot=    1.000000   -0.000038    0.000018    0.000013 Ang=  -0.01 deg.
 Requested convergence on RMS density matrix=1.00D-08 within 128 cycles.
 Requested convergence on MAX density matrix=1.00D-06.
 Requested convergence on             energy=1.00D-06.
 No special actions if energy rises.
 Inv3:  Mode=1 IEnd=    38944827.
 Iteration    1 A*A^-1 deviation from unit magnitude is 3.77D-15 for   1265.
 Iteration    1 A*A^-1 deviation from orthogonality  is 3.01D-15 for   3251   2173.
 Iteration    1 A^-1*A deviation from unit magnitude is 3.77D-15 for   1265.
 Iteration    1 A^-1*A deviation from orthogonality  is 1.67D-15 for   2742   1632.
 Error on total polarization charges =  0.05443
 SCF Done:  E(RM062X) =  -1000.66851858     A.U. after    7 cycles
            NFock=  7  Conv=0.65D-08     -V/T= 2.0111
 SMD-CDS (non-electrostatic) energy       (kcal/mol) =      -6.38
 (included in total energy above)
   1 Symmetry operations used in ECPInt.
 ECPInt:  NShTT=   26106 NPrTT=   92202 LenC2=   21399 LenP2D=   51962.
 LDataN:  DoStor=T MaxTD1= 5 Len=  102
 D1PCM: PCM CHGder 1st derivatives, ID1Alg=3 FixD1E=F DoIter=F DoCFld=F I1PDM=0.
 Calling FoFJK, ICntrl=      2127 FMM=F ISym2X=0 I1Cent= 0 IOpClX= 0 NMat=1 NMatS=1 NMatT=0.
 -------------------------------------------------------------------
 Center     Atomic                   Forces (Hartrees/Bohr)
 Number     Number              X              Y              Z
 -------------------------------------------------------------------
      1        6          -0.000000030   -0.000008319   -0.000003710
      2        6           0.000000196   -0.000004050    0.000003208
      3        6          -0.000001932    0.000005981   -0.000001014
      4        7           0.000001169    0.000000901    0.000004535
      5        6           0.000002018   -0.000006219   -0.000006449
      6        6          -0.000014995    0.000007291   -0.000007296
      7        6           0.000016444    0.000009725    0.000007026
      8        6          -0.000003953   -0.000005947   -0.000015364
      9        6           0.000004825   -0.000006777    0.000001687
     10        6          -0.000000960    0.000007598    0.000001809
     11        6          -0.000003804    0.000001116    0.000005532
     12        6           0.000006702   -0.000000770   -0.000000794
     13        6          -0.000000598    0.000006351    0.000001985
     14        6          -0.000003055   -0.000005456   -0.000000106
     15        6           0.000005533   -0.000009883   -0.000003939
     16        6          -0.000005993   -0.000005230    0.000000581
     17        7          -0.000038826    0.000012975    0.000004925
     18        6           0.000038075   -0.000002397   -0.000020149
     19        6          -0.000015322   -0.000004401    0.000007318
     20        6           0.000018289    0.000010096    0.000008390
     21        6          -0.000001575   -0.000010388   -0.000005229
     22        6          -0.000017151    0.000010731    0.000009263
     23        8           0.000009019   -0.000016687   -0.000002416
     24        6           0.000015581    0.000003675    0.000016999
     25        1          -0.000000473    0.000001899   -0.000001611
     26        1           0.000000368    0.000003691   -0.000000686
     27        1          -0.000000437    0.000005609   -0.000005932
     28        1          -0.000004636   -0.000002742    0.000001392
     29        1           0.000001709   -0.000000677    0.000002953
     30        1          -0.000001771    0.000000947   -0.000000978
     31        1          -0.000000877   -0.000001802   -0.000001964
     32        1           0.000002160    0.000005010   -0.000000273
     33        1           0.000002301   -0.000001285    0.000002998
     34        1           0.000003513   -0.000001962    0.000000168
     35        1          -0.000004823    0.000003560   -0.000001871
     36        1           0.000001280   -0.000001307   -0.000003692
     37        1          -0.000002356    0.000001242   -0.000000051
     38        1          -0.000000721   -0.000000177    0.000000414
     39        1          -0.000000331    0.000000339    0.000000454
     40        1           0.000001684    0.000002006    0.000000645
     41        1           0.000000035    0.000000949   -0.000001549
     42        1          -0.000000792    0.000002061    0.000001339
     43        1          -0.000000368   -0.000002377   -0.000004481
     44        1          -0.000006326   -0.000003233    0.000001822
     45        1           0.000000251   -0.000002494    0.000000349
     46        1          -0.000001209   -0.000004273   -0.000000934
     47        1          -0.000001975   -0.000000537   -0.000001907
     48        1           0.000005555    0.000002707    0.000004450
     49        1           0.000000754   -0.000000059    0.000003084
     50        1           0.000001455   -0.000002169    0.000002668
     51        1          -0.000003711    0.000003455    0.000002640
     52        1           0.000000083    0.000001705   -0.000006239
 -------------------------------------------------------------------
 Cartesian Forces:  Max     0.000038826 RMS     0.000007288

 GradGradGradGradGradGradGradGradGradGradGradGradGradGradGradGradGradGrad
 Berny optimization.
 Using GEDIIS/GDIIS optimizer.
 FormGI is forming the generalized inverse of G from B-inverse, IUseBI=4.
 Internal  Forces:  Max     0.000049265 RMS     0.000004417
 Search for a local minimum.
 Step number  13 out of a maximum of  305
 All quantities printed in internal units (Hartrees-Bohrs-Radians)
 Mixed Optimization -- En-DIIS/RFO-DIIS
 Swapping is turned off.
 Update second derivatives using D2CorX and points    6    7    8    9   10
                                                     11   12   13
 DE= -1.79D-07 DEPred=-1.24D-07 R= 1.45D+00
 Trust test= 1.45D+00 RLast= 9.21D-03 DXMaxT set to 1.29D+00
 ITU=  0  1  1  1  1  1  1  1  1  1  1  1  0
     Eigenvalues ---    0.00055   0.00186   0.00261   0.00329   0.00399
     Eigenvalues ---    0.00679   0.00996   0.01173   0.01233   0.01331
     Eigenvalues ---    0.01615   0.01687   0.01970   0.02079   0.02125
     Eigenvalues ---    0.02157   0.02189   0.02221   0.02240   0.02252
     Eigenvalues ---    0.02264   0.02267   0.02279   0.02282   0.02285
     Eigenvalues ---    0.02294   0.02300   0.02307   0.02311   0.02335
     Eigenvalues ---    0.02383   0.03247   0.03696   0.03896   0.04277
     Eigenvalues ---    0.04440   0.04689   0.04816   0.04902   0.04928
     Eigenvalues ---    0.05354   0.05393   0.05406   0.05484   0.05527
     Eigenvalues ---    0.05594   0.05609   0.05795   0.05906   0.06192
     Eigenvalues ---    0.06580   0.08121   0.08303   0.09160   0.09191
     Eigenvalues ---    0.09370   0.09793   0.10116   0.11993   0.12092
     Eigenvalues ---    0.12847   0.13297   0.15077   0.15331   0.15664
     Eigenvalues ---    0.15882   0.15980   0.15998   0.16000   0.16000
     Eigenvalues ---    0.16000   0.16000   0.16001   0.16007   0.16011
     Eigenvalues ---    0.16033   0.16061   0.16092   0.16143   0.16156
     Eigenvalues ---    0.17695   0.19047   0.21297   0.21817   0.21979
     Eigenvalues ---    0.22001   0.22011   0.22157   0.22752   0.23463
     Eigenvalues ---    0.23486   0.23813   0.23830   0.24983   0.25158
     Eigenvalues ---    0.27336   0.28666   0.28857   0.29188   0.29293
     Eigenvalues ---    0.29781   0.32096   0.33072   0.33275   0.33932
     Eigenvalues ---    0.34180   0.34250   0.34365   0.34437   0.34486
     Eigenvalues ---    0.34541   0.34645   0.34680   0.34721   0.34809
     Eigenvalues ---    0.34895   0.35078   0.35100   0.35151   0.35208
     Eigenvalues ---    0.35332   0.35757   0.35797   0.35825   0.35858
     Eigenvalues ---    0.35912   0.35966   0.36125   0.36212   0.36344
     Eigenvalues ---    0.36816   0.38059   0.38814   0.40484   0.41960
     Eigenvalues ---    0.42567   0.43363   0.43484   0.45376   0.46907
     Eigenvalues ---    0.47348   0.47438   0.48035   0.48076   0.48727
     Eigenvalues ---    0.50593   0.51113   0.51440   0.53657   0.66522
 En-DIIS/RFO-DIIS/Sim-DIIS IScMMF=       -3 using points:    13   12   11   10    9    8    7    6    5    4
 RFO step:  Lambda=-6.99801005D-08.
 DidBck=F Rises=F RFO-DIIS coefs:    1.29128   -0.16653   -0.22929    0.08000    0.05439
                  RFO-DIIS coefs:   -0.02019   -0.00440   -0.03231    0.02939   -0.00234
 Iteration  1 RMS(Cart)=  0.00128034 RMS(Int)=  0.00000050
 Iteration  2 RMS(Cart)=  0.00000088 RMS(Int)=  0.00000014
 Variable       Old X    -DE/DX   Delta X   Delta X   Delta X     New X
                                 (Linear)    (Quad)   (Total)
    R1        2.89361   0.00000   0.00004  -0.00002   0.00002   2.89363
    R2        2.07827  -0.00000   0.00000  -0.00001  -0.00000   2.07826
    R3        2.07954  -0.00000  -0.00000  -0.00000  -0.00001   2.07954
    R4        2.07611  -0.00001   0.00001  -0.00002  -0.00001   2.07610
    R5        2.88870  -0.00000   0.00005  -0.00004   0.00001   2.88871
    R6        2.77239   0.00001  -0.00001   0.00002   0.00001   2.77240
    R7        2.07435  -0.00000   0.00000  -0.00001  -0.00000   2.07435
    R8        2.73426  -0.00000   0.00000  -0.00000  -0.00000   2.73426
    R9        2.09929  -0.00000  -0.00000  -0.00001  -0.00001   2.09929
   R10        2.08020   0.00000  -0.00000   0.00001   0.00000   2.08020
   R11        2.74483  -0.00001  -0.00003   0.00001  -0.00002   2.74481
   R12        2.73432  -0.00001  -0.00001  -0.00002  -0.00002   2.73430
   R13        2.89360   0.00000   0.00004  -0.00001   0.00003   2.89363
   R14        2.08494   0.00000   0.00000   0.00000   0.00001   2.08495
   R15        2.08507  -0.00000   0.00000  -0.00001  -0.00001   2.08506
   R16        2.89503  -0.00001   0.00006  -0.00008  -0.00003   2.89500
   R17        2.08379   0.00000  -0.00001   0.00002   0.00001   2.08380
   R18        2.08391  -0.00000  -0.00001  -0.00001  -0.00002   2.08390
   R19        2.85009  -0.00000   0.00003  -0.00003  -0.00000   2.85009
   R20        2.08194  -0.00000   0.00001  -0.00001   0.00000   2.08194
   R21        2.08220   0.00000  -0.00001   0.00001   0.00000   2.08220
   R22        2.64668   0.00001  -0.00001   0.00003   0.00002   2.64669
   R23        2.64735  -0.00000   0.00002  -0.00003  -0.00001   2.64735
   R24        2.63639   0.00001  -0.00001   0.00002   0.00001   2.63640
   R25        2.06588  -0.00000   0.00001  -0.00001  -0.00000   2.06588
   R26        2.63676  -0.00000  -0.00000  -0.00000  -0.00001   2.63675
   R27        2.06317   0.00000   0.00001  -0.00000   0.00000   2.06317
   R28        2.63720   0.00000   0.00001   0.00000   0.00001   2.63721
   R29        2.06258  -0.00000   0.00001  -0.00001  -0.00000   2.06257
   R30        2.63579  -0.00000   0.00001  -0.00002  -0.00000   2.63579
   R31        2.06317  -0.00000   0.00001  -0.00001  -0.00000   2.06317
   R32        2.06604   0.00000  -0.00000   0.00000  -0.00000   2.06604
   R33        2.88802  -0.00000   0.00001  -0.00002  -0.00001   2.88801
   R34        2.09920   0.00000   0.00001   0.00000   0.00001   2.09921
   R35        2.08030  -0.00000   0.00001  -0.00001  -0.00000   2.08030
   R36        2.89387   0.00000   0.00003  -0.00003   0.00000   2.89387
   R37        2.77217   0.00001   0.00001   0.00003   0.00004   2.77221
   R38        2.07456  -0.00000   0.00001  -0.00002  -0.00000   2.07456
   R39        2.07619  -0.00000   0.00001  -0.00000   0.00001   2.07620
   R40        2.07814  -0.00000  -0.00000   0.00000  -0.00000   2.07814
   R41        2.07947  -0.00000  -0.00000  -0.00000  -0.00000   2.07947
   R42        2.62069   0.00005  -0.00000   0.00010   0.00010   2.62079
   R43        2.68268  -0.00000  -0.00005   0.00001  -0.00004   2.68264
   R44        2.66935   0.00001   0.00002   0.00002   0.00004   2.66940
   R45        2.62695   0.00001   0.00004   0.00000   0.00005   2.62699
   R46        2.05376  -0.00000   0.00001  -0.00002  -0.00001   2.05375
   R47        2.63301  -0.00001  -0.00003  -0.00001  -0.00004   2.63296
   R48        2.06387  -0.00000   0.00000  -0.00000  -0.00000   2.06386
   R49        2.64024  -0.00000   0.00005  -0.00003   0.00003   2.64027
   R50        2.06340   0.00000   0.00001  -0.00000   0.00000   2.06340
   R51        2.55790  -0.00000   0.00001  -0.00002  -0.00000   2.55789
   R52        2.63734  -0.00001  -0.00003  -0.00000  -0.00003   2.63731
   R53        1.82668  -0.00000   0.00000  -0.00000  -0.00000   1.82668
   R54        2.05460  -0.00001   0.00003  -0.00005  -0.00002   2.05458
    A1        1.94137   0.00000   0.00004  -0.00002   0.00002   1.94139
    A2        1.92303  -0.00000   0.00001  -0.00003  -0.00002   1.92300
    A3        1.92931   0.00000  -0.00009   0.00007  -0.00002   1.92929
    A4        1.88653   0.00000   0.00001  -0.00001  -0.00000   1.88653
    A5        1.89641   0.00000  -0.00001   0.00003   0.00001   1.89643
    A6        1.88571   0.00000   0.00005  -0.00003   0.00001   1.88572
    A7        1.94521  -0.00000  -0.00010   0.00005  -0.00005   1.94516
    A8        1.97690   0.00001   0.00003   0.00002   0.00005   1.97695
    A9        1.90030  -0.00000   0.00006  -0.00005   0.00001   1.90031
   A10        1.92700  -0.00000   0.00002   0.00000   0.00002   1.92702
   A11        1.83955  -0.00000   0.00001  -0.00003  -0.00002   1.83952
   A12        1.86783  -0.00000  -0.00001   0.00000  -0.00001   1.86782
   A13        1.93187   0.00000  -0.00003   0.00003   0.00000   1.93187
   A14        1.89694  -0.00000   0.00006  -0.00004   0.00002   1.89695
   A15        1.89299  -0.00000  -0.00006   0.00005  -0.00001   1.89298
   A16        1.94657  -0.00000  -0.00001  -0.00002  -0.00002   1.94654
   A17        1.91322  -0.00000   0.00003  -0.00001   0.00001   1.91323
   A18        1.88077   0.00000   0.00001  -0.00000   0.00001   1.88078
   A19        2.00679  -0.00000   0.00003  -0.00004  -0.00001   2.00678
   A20        1.89586   0.00000  -0.00000   0.00000   0.00000   1.89586
   A21        2.00644  -0.00000  -0.00003   0.00003  -0.00000   2.00644
   A22        2.03384  -0.00001   0.00001  -0.00002  -0.00001   2.03383
   A23        1.88093   0.00000   0.00004   0.00001   0.00005   1.88098
   A24        1.88150  -0.00000  -0.00001  -0.00003  -0.00004   1.88146
   A25        1.90028  -0.00000  -0.00006   0.00004  -0.00003   1.90025
   A26        1.90015   0.00001   0.00000   0.00001   0.00001   1.90017
   A27        1.85966  -0.00000   0.00002  -0.00000   0.00002   1.85967
   A28        1.94600  -0.00000  -0.00004  -0.00000  -0.00005   1.94595
   A29        1.92346   0.00000   0.00000   0.00003   0.00003   1.92349
   A30        1.92314  -0.00000  -0.00002  -0.00006  -0.00008   1.92306
   A31        1.90299   0.00000  -0.00001   0.00004   0.00002   1.90302
   A32        1.90315   0.00000   0.00005  -0.00001   0.00005   1.90320
   A33        1.86306   0.00000   0.00002   0.00001   0.00003   1.86309
   A34        1.96301   0.00001   0.00014  -0.00004   0.00010   1.96311
   A35        1.90454   0.00000  -0.00008   0.00008  -0.00001   1.90454
   A36        1.90339  -0.00000   0.00004  -0.00005  -0.00001   1.90338
   A37        1.91180  -0.00000  -0.00002  -0.00000  -0.00002   1.91178
   A38        1.91153  -0.00000  -0.00007   0.00003  -0.00004   1.91149
   A39        1.86707   0.00000  -0.00001  -0.00001  -0.00002   1.86705
   A40        2.10923  -0.00000   0.00003  -0.00005  -0.00001   2.10922
   A41        2.10689   0.00000  -0.00001   0.00003   0.00002   2.10691
   A42        2.06618  -0.00000  -0.00001   0.00000  -0.00000   2.06617
   A43        2.11025  -0.00000  -0.00000   0.00000   0.00000   2.11026
   A44        2.08163   0.00000  -0.00001   0.00003   0.00002   2.08165
   A45        2.09129  -0.00000   0.00001  -0.00003  -0.00002   2.09127
   A46        2.09676  -0.00000   0.00002  -0.00002  -0.00000   2.09676
   A47        2.09100   0.00000  -0.00000   0.00001   0.00001   2.09101
   A48        2.09542   0.00000  -0.00001   0.00001  -0.00001   2.09541
   A49        2.08615  -0.00000  -0.00000  -0.00000  -0.00001   2.08615
   A50        2.09859   0.00000  -0.00000   0.00001   0.00000   2.09859
   A51        2.09844   0.00000   0.00001  -0.00000   0.00000   2.09844
   A52        2.09666   0.00000  -0.00001   0.00002   0.00001   2.09668
   A53        2.09530  -0.00000  -0.00000   0.00000   0.00000   2.09530
   A54        2.09121  -0.00000   0.00002  -0.00003  -0.00001   2.09120
   A55        2.11036  -0.00000   0.00001  -0.00001  -0.00000   2.11036
   A56        2.08175  -0.00000  -0.00002   0.00001  -0.00001   2.08174
   A57        2.09107   0.00000   0.00001   0.00001   0.00001   2.09108
   A58        1.93121   0.00000   0.00006  -0.00007  -0.00001   1.93120
   A59        1.94640   0.00000   0.00001   0.00003   0.00004   1.94644
   A60        1.91311  -0.00000   0.00001  -0.00004  -0.00003   1.91308
   A61        1.89775  -0.00000  -0.00008   0.00006  -0.00002   1.89773
   A62        1.89301  -0.00000   0.00001  -0.00000   0.00001   1.89302
   A63        1.88091   0.00000  -0.00000   0.00001   0.00001   1.88092
   A64        1.94380  -0.00001   0.00008  -0.00010  -0.00003   1.94377
   A65        1.92762   0.00000  -0.00007   0.00003  -0.00005   1.92757
   A66        1.84061  -0.00000  -0.00002  -0.00005  -0.00007   1.84054
   A67        1.97671   0.00001   0.00004   0.00004   0.00009   1.97679
   A68        1.90094   0.00000   0.00002   0.00000   0.00002   1.90096
   A69        1.86724  -0.00000  -0.00005   0.00008   0.00003   1.86727
   A70        1.92723   0.00000  -0.00001   0.00003   0.00002   1.92725
   A71        1.94286   0.00000   0.00000   0.00003   0.00003   1.94288
   A72        1.92291  -0.00000   0.00002  -0.00005  -0.00003   1.92288
   A73        1.89707  -0.00000  -0.00001   0.00000  -0.00000   1.89707
   A74        1.88592  -0.00000   0.00001  -0.00002  -0.00001   1.88591
   A75        1.88638   0.00000  -0.00002   0.00001  -0.00001   1.88637
   A76        2.06432  -0.00001  -0.00003  -0.00004  -0.00006   2.06425
   A77        2.07485   0.00000   0.00002  -0.00006  -0.00003   2.07482
   A78        2.07474   0.00000  -0.00011   0.00011   0.00000   2.07474
   A79        2.12481   0.00001   0.00008  -0.00006   0.00002   2.12484
   A80        2.11869  -0.00000  -0.00011   0.00009  -0.00002   2.11867
   A81        2.03965  -0.00001   0.00003  -0.00003  -0.00000   2.03964
   A82        2.10600   0.00000  -0.00001   0.00002   0.00000   2.10600
   A83        2.11491   0.00000   0.00003  -0.00001   0.00002   2.11493
   A84        2.06226  -0.00000  -0.00001  -0.00001  -0.00002   2.06223
   A85        2.13142  -0.00000  -0.00001   0.00000  -0.00001   2.13141
   A86        2.07100   0.00000  -0.00001   0.00001  -0.00000   2.07100
   A87        2.08075   0.00000   0.00002  -0.00001   0.00001   2.08076
   A88        2.05471   0.00000   0.00002  -0.00000   0.00002   2.05473
   A89        2.12270  -0.00000   0.00000  -0.00001  -0.00001   2.12270
   A90        2.10569  -0.00000  -0.00002   0.00001  -0.00001   2.10568
   A91        2.13044  -0.00001  -0.00001  -0.00002  -0.00003   2.13041
   A92        2.11471   0.00000  -0.00002   0.00001  -0.00001   2.11469
   A93        2.03803   0.00001   0.00004   0.00001   0.00004   2.03807
   A94        1.90740  -0.00000  -0.00000  -0.00001  -0.00002   1.90739
   A95        2.11938   0.00000  -0.00000   0.00001   0.00001   2.11939
   A96        2.13564  -0.00000  -0.00006   0.00002  -0.00004   2.13559
   A97        2.02815   0.00000   0.00007  -0.00003   0.00004   2.02819
    D1       -2.96722  -0.00000   0.00001   0.00005   0.00006  -2.96716
    D2       -0.78160  -0.00000  -0.00003   0.00011   0.00008  -0.78152
    D3        1.29414   0.00000   0.00002   0.00009   0.00011   1.29425
    D4        1.22419  -0.00000  -0.00004   0.00010   0.00006   1.22426
    D5       -2.87337   0.00000  -0.00008   0.00016   0.00008  -2.87329
    D6       -0.79763   0.00000  -0.00002   0.00014   0.00012  -0.79751
    D7       -0.85883  -0.00000  -0.00005   0.00012   0.00007  -0.85876
    D8        1.32679   0.00000  -0.00008   0.00018   0.00009   1.32689
    D9       -2.88065   0.00000  -0.00003   0.00016   0.00013  -2.88053
   D10        1.30187   0.00000  -0.00006   0.00011   0.00006   1.30193
   D11       -2.83790   0.00000  -0.00004   0.00008   0.00004  -2.83786
   D12       -0.79767   0.00000  -0.00003   0.00008   0.00005  -0.79761
   D13       -0.91126  -0.00000  -0.00003   0.00005   0.00002  -0.91124
   D14        1.23215  -0.00000  -0.00002   0.00002  -0.00000   1.23215
   D15       -3.01080  -0.00000  -0.00000   0.00002   0.00001  -3.01079
   D16       -2.92255   0.00000  -0.00003   0.00006   0.00003  -2.92252
   D17       -0.77914  -0.00000  -0.00002   0.00003   0.00001  -0.77913
   D18        1.26110  -0.00000  -0.00000   0.00003   0.00003   1.26112
   D19       -1.45457  -0.00000   0.00025  -0.00013   0.00012  -1.45445
   D20        1.29178  -0.00000  -0.00008  -0.00008  -0.00015   1.29162
   D21        0.74082  -0.00000   0.00014  -0.00005   0.00010   0.74091
   D22       -2.79603  -0.00000  -0.00018   0.00001  -0.00017  -2.79620
   D23        2.73425  -0.00000   0.00015  -0.00008   0.00008   2.73433
   D24       -0.80259  -0.00000  -0.00017  -0.00002  -0.00019  -0.80278
   D25       -2.87462  -0.00000  -0.00010   0.00003  -0.00007  -2.87470
   D26        1.13243   0.00000  -0.00008   0.00002  -0.00006   1.13237
   D27        1.29426   0.00000  -0.00015   0.00007  -0.00008   1.29418
   D28       -0.98187   0.00000  -0.00013   0.00007  -0.00006  -0.98194
   D29       -0.78720   0.00000  -0.00018   0.00010  -0.00008  -0.78729
   D30       -3.06334   0.00000  -0.00016   0.00009  -0.00007  -3.06341
   D31       -1.11635   0.00001   0.00024   0.00037   0.00061  -1.11574
   D32        1.02459   0.00000   0.00019   0.00041   0.00060   1.02519
   D33        3.02561   0.00001   0.00023   0.00039   0.00063   3.02624
   D34        1.10483   0.00001   0.00024   0.00036   0.00059   1.10542
   D35       -3.03742   0.00000   0.00019   0.00040   0.00059  -3.03683
   D36       -1.03640   0.00000   0.00023   0.00038   0.00061  -1.03579
   D37       -1.13251  -0.00000  -0.00000  -0.00005  -0.00005  -1.13256
   D38        0.98226  -0.00000  -0.00006   0.00000  -0.00006   0.98220
   D39        3.06372  -0.00000  -0.00006   0.00002  -0.00004   3.06368
   D40        2.87435   0.00000  -0.00001  -0.00002  -0.00003   2.87432
   D41       -1.29406   0.00000  -0.00008   0.00003  -0.00004  -1.29410
   D42        0.78739   0.00000  -0.00007   0.00005  -0.00002   0.78737
   D43        3.13238   0.00000   0.00054   0.00002   0.00056   3.13294
   D44       -1.03497   0.00000   0.00049   0.00008   0.00058  -1.03439
   D45        1.01657   0.00000   0.00051   0.00007   0.00058   1.01715
   D46        1.00155   0.00000   0.00053  -0.00001   0.00052   1.00207
   D47        3.11739   0.00000   0.00049   0.00005   0.00054   3.11793
   D48       -1.11426   0.00000   0.00050   0.00004   0.00055  -1.11371
   D49       -1.01932  -0.00000   0.00053  -0.00003   0.00051  -1.01881
   D50        1.09652  -0.00000   0.00049   0.00004   0.00053   1.09705
   D51       -3.13513  -0.00000   0.00051   0.00002   0.00053  -3.13460
   D52        3.14148   0.00000   0.00057   0.00012   0.00069  -3.14102
   D53        1.01624   0.00000   0.00056   0.00009   0.00066   1.01689
   D54       -1.01762   0.00000   0.00060   0.00009   0.00069  -1.01693
   D55        1.01377   0.00000   0.00060   0.00006   0.00066   1.01443
   D56       -1.11147   0.00000   0.00060   0.00004   0.00063  -1.11084
   D57        3.13786   0.00000   0.00063   0.00004   0.00066   3.13852
   D58       -1.01430  -0.00000   0.00055   0.00004   0.00059  -1.01371
   D59       -3.13954  -0.00000   0.00055   0.00001   0.00056  -3.13898
   D60        1.10979  -0.00000   0.00058   0.00001   0.00059   1.11038
   D61       -1.57766  -0.00000   0.00050   0.00008   0.00058  -1.57708
   D62        1.51796  -0.00000   0.00080  -0.00021   0.00059   1.51855
   D63        0.54345   0.00000   0.00047   0.00015   0.00062   0.54407
   D64       -2.64411   0.00000   0.00076  -0.00014   0.00063  -2.64349
   D65        2.58607   0.00000   0.00040   0.00015   0.00056   2.58663
   D66       -0.60149  -0.00000   0.00070  -0.00013   0.00056  -0.60093
   D67        3.09878  -0.00000   0.00028  -0.00027   0.00001   3.09879
   D68       -0.04718  -0.00000   0.00029  -0.00026   0.00004  -0.04714
   D69        0.00211   0.00000  -0.00001   0.00001   0.00000   0.00211
   D70        3.13934   0.00000   0.00000   0.00002   0.00003   3.13936
   D71       -3.09847   0.00000  -0.00027   0.00024  -0.00003  -3.09850
   D72        0.04772   0.00000  -0.00026   0.00028   0.00002   0.04774
   D73       -0.00173  -0.00000   0.00002  -0.00004  -0.00002  -0.00176
   D74       -3.13873   0.00000   0.00004  -0.00000   0.00003  -3.13870
   D75       -0.00176   0.00000  -0.00002   0.00006   0.00004  -0.00173
   D76        3.13711  -0.00000   0.00005  -0.00004   0.00001   3.13712
   D77       -3.13897   0.00000  -0.00003   0.00004   0.00001  -3.13896
   D78       -0.00010  -0.00000   0.00004  -0.00005  -0.00001  -0.00011
   D79        0.00099  -0.00000   0.00003  -0.00009  -0.00006   0.00093
   D80        3.13906  -0.00000   0.00005  -0.00009  -0.00005   3.13901
   D81       -3.13787  -0.00000  -0.00004   0.00000  -0.00004  -3.13791
   D82        0.00019  -0.00000  -0.00002   0.00000  -0.00002   0.00017
   D83       -0.00062   0.00000  -0.00002   0.00007   0.00004  -0.00058
   D84        3.13757   0.00000   0.00002   0.00001   0.00003   3.13760
   D85       -3.13869   0.00000  -0.00004   0.00007   0.00003  -3.13866
   D86       -0.00050   0.00000   0.00001   0.00001   0.00002  -0.00048
   D87        0.00102  -0.00000  -0.00000   0.00000  -0.00000   0.00101
   D88        3.13799  -0.00000  -0.00002  -0.00004  -0.00005   3.13793
   D89       -3.13718   0.00000  -0.00005   0.00006   0.00001  -3.13717
   D90       -0.00021  -0.00000  -0.00007   0.00002  -0.00004  -0.00025
   D91       -1.30024  -0.00000   0.00002   0.00009   0.00011  -1.30013
   D92        0.91204   0.00000   0.00007   0.00009   0.00017   0.91221
   D93        2.92352   0.00000  -0.00003   0.00017   0.00014   2.92366
   D94        2.83962  -0.00000   0.00003   0.00005   0.00008   2.83970
   D95       -1.23128   0.00000   0.00008   0.00005   0.00014  -1.23114
   D96        0.78020   0.00000  -0.00002   0.00013   0.00011   0.78031
   D97        0.79877  -0.00000   0.00007   0.00000   0.00007   0.79884
   D98        3.01106   0.00000   0.00013   0.00000   0.00013   3.01119
   D99       -1.26065  -0.00000   0.00002   0.00008   0.00010  -1.26055
   D100       0.84837   0.00000  -0.00036   0.00005  -0.00030   0.84807
   D101       2.95719   0.00000  -0.00037   0.00009  -0.00028   2.95691
   D102      -1.23353   0.00000  -0.00038   0.00009  -0.00029  -1.23382
   D103      -1.33679  -0.00000  -0.00035   0.00006  -0.00029  -1.33708
   D104       0.77202   0.00000  -0.00037   0.00011  -0.00026   0.77176
   D105       2.86448   0.00000  -0.00038   0.00010  -0.00027   2.86421
   D106       2.87107  -0.00000  -0.00033  -0.00006  -0.00039   2.87068
   D107      -1.30330  -0.00000  -0.00034  -0.00002  -0.00037  -1.30366
   D108       0.78916  -0.00000  -0.00035  -0.00002  -0.00038   0.78879
   D109      -0.74150  -0.00000  -0.00013  -0.00005  -0.00017  -0.74167
   D110       2.79532  -0.00000   0.00016  -0.00006   0.00010   2.79542
   D111       1.45235  -0.00000  -0.00005  -0.00013  -0.00018   1.45218
   D112      -1.29402  -0.00000   0.00024  -0.00014   0.00010  -1.29392
   D113      -2.73618   0.00000  -0.00004  -0.00004  -0.00008  -2.73626
   D114       0.80064   0.00000   0.00025  -0.00006   0.00019   0.80083
   D115       0.20605   0.00000   0.00015   0.00010   0.00025   0.20629
   D116      -2.94504  -0.00000   0.00001   0.00004   0.00005  -2.94499
   D117       2.95001  -0.00000  -0.00016   0.00012  -0.00004   2.94997
   D118      -0.20107  -0.00000  -0.00030   0.00006  -0.00024  -0.20131
   D119       3.10061  -0.00000  -0.00014  -0.00001  -0.00014   3.10046
   D120      -0.04836  -0.00000  -0.00017   0.00001  -0.00016  -0.04852
   D121      -0.03190   0.00000  -0.00001   0.00005   0.00005  -0.03186
   D122       3.10232   0.00000  -0.00004   0.00007   0.00003   3.10235
   D123      -3.09890   0.00000   0.00012   0.00002   0.00015  -3.09876
   D124       0.04838   0.00000   0.00008   0.00003   0.00010   0.04848
   D125       0.03364  -0.00000  -0.00001  -0.00004  -0.00004   0.03360
   D126      -3.10226  -0.00000  -0.00005  -0.00003  -0.00009  -3.10234
   D127       0.01153  -0.00000   0.00000   0.00001   0.00002   0.01154
   D128      -3.13658  -0.00000   0.00003  -0.00006  -0.00002  -3.13660
   D129      -3.12291   0.00000   0.00004  -0.00001   0.00003  -3.12288
   D130       0.01217  -0.00000   0.00007  -0.00008  -0.00001   0.01216
   D131       0.00849  -0.00000   0.00001  -0.00009  -0.00008   0.00841
   D132       3.13659  -0.00000   0.00010  -0.00013  -0.00003   3.13656
   D133      -3.12655  -0.00000  -0.00002  -0.00002  -0.00004  -3.12659
   D134       0.00155  -0.00000   0.00007  -0.00006   0.00001   0.00156
   D135       3.12802  -0.00000   0.00005  -0.00012  -0.00008   3.12794
   D136      -0.00692   0.00000  -0.00002   0.00011   0.00008  -0.00683
   D137      -0.00022  -0.00000  -0.00004  -0.00008  -0.00013  -0.00035
   D138      -3.13516   0.00000  -0.00011   0.00015   0.00003  -3.13512
   D139      -0.00509   0.00001   0.00027   0.00033   0.00060  -0.00449
   D140       3.13012   0.00000   0.00033   0.00011   0.00044   3.13056
   D141      -0.01482  -0.00000   0.00002  -0.00005  -0.00002  -0.01484
   D142       3.12142  -0.00000   0.00007  -0.00005   0.00002   3.12144
   D143       3.13310   0.00000  -0.00005   0.00017   0.00013   3.13323
   D144      -0.01385   0.00000  -0.00000   0.00017   0.00017  -0.01368
         Item               Value     Threshold  Converged?
 Maximum Force            0.000049     0.000450     YES
 RMS     Force            0.000004     0.000300     YES
 Maximum Displacement     0.005937     0.001800     NO 
 RMS     Displacement     0.001280     0.001200     NO 
 Predicted change in Energy=-3.304099D-08
 GradGradGradGradGradGradGradGradGradGradGradGradGradGradGradGradGradGrad

 Symmetry turned off by external request.
 Stoichiometry    C21H28N2O
 Framework group  C1[X(C21H28N2O)]
 Deg. of freedom   150
 Full point group                 C1      NOp   1
                          Input orientation:                          
 ---------------------------------------------------------------------
 Center     Atomic      Atomic             Coordinates (Angstroms)
 Number     Number       Type             X           Y           Z
 ---------------------------------------------------------------------
      1          6           0        2.089051   -1.714793   -2.139582
      2          6           0        1.541007   -0.437801   -1.496427
      3          6           0        0.018822   -0.486988   -1.364988
      4          7           0       -0.373097   -1.373432   -0.290669
      5          6           0       -1.771830   -1.764873   -0.297802
      6          6           0       -2.796420   -0.645340   -0.093919
      7          6           0       -4.230486   -1.182729   -0.133945
      8          6           0       -5.258746   -0.097289    0.063972
      9          6           0       -5.718484    0.231440    1.345446
     10          6           0       -6.631508    1.269151    1.534932
     11          6           0       -7.099512    1.998808    0.441560
     12          6           0       -6.648609    1.681998   -0.840581
     13          6           0       -5.736080    0.643392   -1.025113
     14          6           0        0.099965   -0.820932    0.960154
     15          6           0        1.627641   -0.796418    0.994997
     16          6           0        2.203439   -2.198792    1.211574
     17          7           0        2.156783   -0.131145   -0.200612
     18          6           0        3.453168    0.360892   -0.174787
     19          6           0        4.106738    0.805981   -1.353765
     20          6           0        5.388734    1.340342   -1.295050
     21          6           0        6.090835    1.451510   -0.096721
     22          6           0        5.467054    0.994553    1.066968
     23          8           0        6.074534    1.045893    2.275483
     24          6           0        4.181352    0.452829    1.032147
     25          1           0        3.186030   -1.755343   -2.072615
     26          1           0        1.809969   -1.754016   -3.203326
     27          1           0        1.673689   -2.603961   -1.645792
     28          1           0        1.748944    0.411555   -2.159973
     29          1           0       -0.357712    0.545021   -1.199864
     30          1           0       -0.401558   -0.849745   -2.315482
     31          1           0       -1.976577   -2.265334   -1.259524
     32          1           0       -1.913198   -2.525621    0.488771
     33          1           0       -2.626639   -0.145266    0.874090
     34          1           0       -2.678824    0.124807   -0.874369
     35          1           0       -4.350144   -1.950429    0.647143
     36          1           0       -4.401513   -1.679741   -1.102352
     37          1           0       -5.357074   -0.338511    2.205485
     38          1           0       -6.981128    1.507358    2.541419
     39          1           0       -7.815668    2.809427    0.587569
     40          1           0       -7.012031    2.244894   -1.702592
     41          1           0       -5.388945    0.397419   -2.032239
     42          1           0       -0.277085    0.211991    1.117940
     43          1           0       -0.257917   -1.440649    1.796654
     44          1           0        1.890586   -0.166971    1.855137
     45          1           0        1.735968   -2.915768    0.522730
     46          1           0        3.291243   -2.213553    1.050899
     47          1           0        2.005560   -2.535551    2.240326
     48          1           0        3.625360    0.733440   -2.325435
     49          1           0        5.858849    1.676945   -2.221592
     50          1           0        7.099399    1.868346   -0.060668
     51          1           0        6.956538    1.428057    2.173467
     52          1           0        3.781131    0.104741    1.981224
 ---------------------------------------------------------------------
 Rotational constants (GHZ):           0.5415554           0.0771035           0.0757409
 Standard basis: def2SVP (5D, 7F)
   476 basis functions,   796 primitive gaussians,   500 cartesian basis functions
    88 alpha electrons       88 beta electrons
       nuclear repulsion energy      1969.8447752750 Hartrees.
 NAtoms=   52 NActive=   52 NUniq=   52 SFac= 1.00D+00 NAtFMM=   60 NAOKFM=F Big=F
 Integral buffers will be    131072 words long.
 Raffenetti 2 integral format.
 Two-electron integral symmetry is turned off.
 ------------------------------------------------------------------------------
 Polarizable Continuum Model (PCM)
 =================================
 Model                : PCM.
 Atomic radii         : SMD-Coulomb.
 Polarization charges : Total charges.
 Charge compensation  : None.
 Solution method      : On-the-fly selection.
 Cavity type          : VdW (van der Waals Surface) (Alpha=1.000).
 Cavity algorithm     : GePol (No added spheres)
                        Default sphere list used, NSphG=   52.
                        Lebedev-Laikov grids with approx.  5.0 points / Ang**2.
                        Smoothing algorithm: York/Karplus (Gamma=1.0000).
                        Polarization charges: spherical gaussians, with
                                              point-specific exponents (IZeta= 3).
                        Self-potential: point-specific (ISelfS= 7).
                        Self-field    : sphere-specific E.n sum rule (ISelfD= 2).
 1st derivatives      : Analytical E(r).r(x)/FMM algorithm (CHGder, D1EAlg=3).
                        Cavity 1st derivative terms included.
 Solvent              : TetraHydroFuran, Eps=   7.425700 Eps(inf)=   1.974025
 ------------------------------------------------------------------------------
 ------------------------------------------------------------------------------
 Atomic radii for non-electrostatic terms: SMD-CDS.
 ------------------------------------------------------------------------------
 Nuclear repulsion after PCM non-electrostatic terms =     1969.8346122246 Hartrees.
 One-electron integrals computed using PRISM.
   1 Symmetry operations used in ECPInt.
 ECPInt:  NShTT=   26106 NPrTT=   92202 LenC2=   21399 LenP2D=   51962.
 LDataN:  DoStor=T MaxTD1= 4 Len=   56
 NBasis=   476 RedAO= T EigKep=  2.43D-04  NBF=   476
 NBsUse=   476 1.00D-06 EigRej= -1.00D+00 NBFU=   476
 Initial guess from the checkpoint file:  "/local_scratch/saa85821/16516335/Gau-13701.chk"
 B after Tr=     0.000048   -0.000081    0.000034
         Rot=    1.000000   -0.000006    0.000011    0.000008 Ang=  -0.00 deg.
 Requested convergence on RMS density matrix=1.00D-08 within 128 cycles.
 Requested convergence on MAX density matrix=1.00D-06.
 Requested convergence on             energy=1.00D-06.
 No special actions if energy rises.
 Inv3:  Mode=1 IEnd=    38944827.
 Iteration    1 A*A^-1 deviation from unit magnitude is 3.33D-15 for   2352.
 Iteration    1 A*A^-1 deviation from orthogonality  is 2.55D-15 for   2901   1460.
 Iteration    1 A^-1*A deviation from unit magnitude is 3.11D-15 for    109.
 Iteration    1 A^-1*A deviation from orthogonality  is 1.89D-15 for   1849   1433.
 Error on total polarization charges =  0.05443
 SCF Done:  E(RM062X) =  -1000.66851863     A.U. after    7 cycles
            NFock=  7  Conv=0.35D-08     -V/T= 2.0111
 SMD-CDS (non-electrostatic) energy       (kcal/mol) =      -6.38
 (included in total energy above)
   1 Symmetry operations used in ECPInt.
 ECPInt:  NShTT=   26106 NPrTT=   92202 LenC2=   21399 LenP2D=   51962.
 LDataN:  DoStor=T MaxTD1= 5 Len=  102
 D1PCM: PCM CHGder 1st derivatives, ID1Alg=3 FixD1E=F DoIter=F DoCFld=F I1PDM=0.
 Calling FoFJK, ICntrl=      2127 FMM=F ISym2X=0 I1Cent= 0 IOpClX= 0 NMat=1 NMatS=1 NMatT=0.
 -------------------------------------------------------------------
 Center     Atomic                   Forces (Hartrees/Bohr)
 Number     Number              X              Y              Z
 -------------------------------------------------------------------
      1        6           0.000001695    0.000002349    0.000001403
      2        6          -0.000001313   -0.000005732   -0.000001215
      3        6           0.000003757    0.000005803    0.000000618
      4        7          -0.000000234    0.000001069   -0.000003010
      5        6          -0.000005070   -0.000001970   -0.000000590
      6        6          -0.000007691    0.000000953   -0.000006941
      7        6           0.000005546    0.000002393    0.000001692
      8        6          -0.000000190    0.000000953   -0.000004098
      9        6           0.000005163   -0.000000637   -0.000000934
     10        6          -0.000000072    0.000000878    0.000001375
     11        6           0.000000884    0.000001195   -0.000001159
     12        6           0.000001873    0.000001633    0.000002383
     13        6          -0.000001838    0.000002844    0.000003546
     14        6          -0.000003864   -0.000003846    0.000004974
     15        6           0.000003091    0.000000830   -0.000007056
     16        6          -0.000002977   -0.000003467   -0.000002317
     17        7          -0.000011073   -0.000001420    0.000007328
     18        6           0.000012862    0.000007144    0.000003551
     19        6          -0.000002067   -0.000003025    0.000001208
     20        6           0.000000162   -0.000000613    0.000000750
     21        6          -0.000000672   -0.000002019    0.000007552
     22        6           0.000001897   -0.000001570   -0.000001536
     23        8           0.000001060   -0.000007653    0.000000527
     24        6          -0.000004348   -0.000002655    0.000000930
     25        1           0.000000404    0.000002024   -0.000001252
     26        1          -0.000000140    0.000002236   -0.000001943
     27        1          -0.000000916    0.000001364   -0.000004598
     28        1           0.000000129   -0.000001485   -0.000000683
     29        1           0.000002075    0.000001380    0.000001821
[...]
   R33        2.88803  -0.00000   0.00000  -0.01409  -0.01404   2.87399
   R34        2.09922  -0.00000   0.00000  -0.00367  -0.00367   2.09555
   R35        2.08028   0.00000   0.00000   0.00277   0.00277   2.08306
   R36        2.89387  -0.00000   0.00000  -0.00196  -0.00196   2.89191
   R37        2.77222  -0.00001   0.00000   0.00156   0.00176   2.77398
   R38        2.07456  -0.00000   0.00000  -0.00283  -0.00283   2.07174
   R39        2.07618  -0.00000   0.00000   0.00401   0.00401   2.08019
   R40        2.07814   0.00000   0.00000  -0.00133  -0.00133   2.07681
   R41        2.07946   0.00000   0.00000   0.00116   0.00116   2.08062
   R42        2.62091  -0.00002   0.00000  -0.02405  -0.02405   2.59686
   R43        2.68254   0.00002   0.00000   0.02305   0.02305   2.70559
   R44        2.66942  -0.00001   0.00000  -0.00470  -0.00469   2.66473
   R45        2.62707  -0.00002   0.00000  -0.01684  -0.01684   2.61023
   R46        2.05375   0.00000   0.00000   0.00032   0.00032   2.05407
   R47        2.63291   0.00001   0.00000   0.00979   0.00979   2.64270
   R48        2.06386   0.00000   0.00000   0.00196   0.00196   2.06581
   R49        2.64031  -0.00001   0.00000  -0.00802  -0.00802   2.63229
   R50        2.06340  -0.00000   0.00000  -0.00126  -0.00126   2.06214
   R51        2.55789  -0.00000   0.00000   0.00013   0.00013   2.55803
   R52        2.63725   0.00001   0.00000   0.01353   0.01353   2.65078
   R53        1.82668   0.00000   0.00000   0.00009   0.00009   1.82676
   R54        2.05458   0.00000   0.00000   0.00221   0.00221   2.05679
    A1        1.94147  -0.00000   0.00000  -0.00878  -0.00878   1.93268
    A2        1.92295   0.00000   0.00000   0.01154   0.01153   1.93447
    A3        1.92925   0.00000   0.00000   0.00217   0.00212   1.93136
    A4        1.88652   0.00000   0.00000   0.00283   0.00286   1.88937
    A5        1.89646  -0.00000   0.00000  -0.00873  -0.00877   1.88769
    A6        1.88572  -0.00000   0.00000   0.00100   0.00095   1.88667
    A7        1.94505   0.00001   0.00000   0.00339   0.00347   1.94852
    A8        1.97710  -0.00001   0.00000  -0.03081  -0.03071   1.94639
    A9        1.90031  -0.00000   0.00000   0.00875   0.00869   1.90900
   A10        1.92699   0.00000   0.00000   0.01413   0.01398   1.94097
   A11        1.83953  -0.00000   0.00000   0.00350   0.00340   1.84294
   A12        1.86779   0.00000   0.00000   0.00353   0.00346   1.87125
   A13        1.93184  -0.00000   0.00000   0.00137   0.00104   1.93289
   A14        1.89698  -0.00000   0.00000   0.00256   0.00258   1.89956
   A15        1.89299   0.00000   0.00000  -0.00440  -0.00425   1.88874
   A16        1.94650   0.00000   0.00000   0.00256   0.00269   1.94919
   A17        1.91325  -0.00000   0.00000   0.00235   0.00240   1.91565
   A18        1.88080  -0.00000   0.00000  -0.00480  -0.00484   1.87596
   A19        2.00681   0.00000   0.00000   0.00854   0.00861   2.01542
   A20        1.89586   0.00000   0.00000  -0.00125  -0.00135   1.89450
   A21        2.00645  -0.00000   0.00000  -0.00367  -0.00358   2.00287
   A22        2.03385   0.00000   0.00000   0.01252   0.01249   2.04634
   A23        1.88112  -0.00000   0.00000  -0.01466  -0.01467   1.86645
   A24        1.88132  -0.00000   0.00000   0.01282   0.01284   1.89416
   A25        1.90021   0.00000   0.00000   0.00718   0.00721   1.90742
   A26        1.90017  -0.00000   0.00000  -0.01169  -0.01177   1.88840
   A27        1.85970  -0.00000   0.00000  -0.00792  -0.00788   1.85181
   A28        1.94590  -0.00000   0.00000   0.00047   0.00045   1.94634
   A29        1.92346   0.00000   0.00000   0.01099   0.01095   1.93440
   A30        1.92306   0.00000   0.00000   0.00633   0.00627   1.92933
   A31        1.90308  -0.00000   0.00000  -0.02082  -0.02079   1.88229
   A32        1.90320   0.00000   0.00000   0.00827   0.00824   1.91144
   A33        1.86312  -0.00000   0.00000  -0.00578  -0.00580   1.85732
   A34        1.96311   0.00000   0.00000   0.01964   0.01960   1.98271
   A35        1.90446  -0.00001   0.00000  -0.02827  -0.02818   1.87628
   A36        1.90344   0.00000   0.00000   0.02071   0.02079   1.92423
   A37        1.91177   0.00000   0.00000   0.00707   0.00720   1.91897
   A38        1.91150  -0.00000   0.00000  -0.01976  -0.02001   1.89149
   A39        1.86706  -0.00000   0.00000  -0.00034  -0.00021   1.86684
   A40        2.10897  -0.00001   0.00000   0.00134   0.00075   2.10972
   A41        2.10715   0.00001   0.00000   0.00202   0.00142   2.10857
   A42        2.06618  -0.00000   0.00000  -0.00106  -0.00136   2.06482
   A43        2.11026   0.00000   0.00000   0.00221   0.00231   2.11257
   A44        2.08166  -0.00000   0.00000  -0.00759  -0.00766   2.07401
   A45        2.09125   0.00000   0.00000   0.00542   0.00535   2.09660
   A46        2.09676   0.00000   0.00000   0.00042   0.00040   2.09715
   A47        2.09103  -0.00000   0.00000   0.00017   0.00017   2.09120
   A48        2.09540   0.00000   0.00000  -0.00062  -0.00062   2.09478
   A49        2.08614  -0.00000   0.00000   0.00017   0.00005   2.08618
   A50        2.09860  -0.00000   0.00000  -0.00408  -0.00410   2.09449
   A51        2.09845   0.00000   0.00000   0.00397   0.00395   2.10240
   A52        2.09669  -0.00000   0.00000  -0.00074  -0.00073   2.09596
   A53        2.09531   0.00000   0.00000  -0.00108  -0.00108   2.09422
   A54        2.09118   0.00000   0.00000   0.00182   0.00181   2.09300
   A55        2.11035  -0.00000   0.00000  -0.00098  -0.00085   2.10951
   A56        2.08170   0.00000   0.00000   0.00041   0.00034   2.08203
   A57        2.09113  -0.00000   0.00000   0.00054   0.00046   2.09159
   A58        1.93119  -0.00000   0.00000  -0.00502  -0.00524   1.92595
   A59        1.94648   0.00000   0.00000   0.00624   0.00639   1.95286
   A60        1.91307   0.00000   0.00000  -0.00040  -0.00043   1.91264
   A61        1.89769   0.00000   0.00000   0.00233   0.00236   1.90005
   A62        1.89301  -0.00000   0.00000  -0.00058  -0.00049   1.89252
   A63        1.88094  -0.00000   0.00000  -0.00265  -0.00268   1.87827
   A64        1.94377   0.00000   0.00000   0.00243   0.00228   1.94606
   A65        1.92752   0.00000   0.00000   0.00868   0.00872   1.93624
   A66        1.84050   0.00000   0.00000   0.00089   0.00085   1.84135
   A67        1.97689  -0.00001   0.00000  -0.02544  -0.02538   1.95151
   A68        1.90095   0.00000   0.00000   0.00690   0.00696   1.90791
   A69        1.86727  -0.00000   0.00000   0.00876   0.00867   1.87594
   A70        1.92728  -0.00000   0.00000  -0.00561  -0.00566   1.92162
   A71        1.94293  -0.00000   0.00000  -0.01309  -0.01312   1.92981
   A72        1.92284   0.00000   0.00000   0.01393   0.01396   1.93679
   A73        1.89707   0.00000   0.00000   0.00048   0.00037   1.89744
   A74        1.88591   0.00000   0.00000   0.00129   0.00130   1.88720
   A75        1.88635   0.00000   0.00000   0.00343   0.00348   1.88983
   A76        2.06418   0.00000   0.00000   0.01048   0.00904   2.07322
   A77        2.07472   0.00000   0.00000   0.01728   0.01542   2.09014
   A78        2.07467  -0.00000   0.00000   0.01012   0.00811   2.08279
   A79        2.12486  -0.00001   0.00000  -0.00540  -0.00540   2.11946
   A80        2.11859   0.00001   0.00000   0.01927   0.01927   2.13786
   A81        2.03969  -0.00000   0.00000  -0.01378  -0.01383   2.02586
   A82        2.10598   0.00000   0.00000   0.00724   0.00720   2.11317
   A83        2.11497  -0.00000   0.00000  -0.01012  -0.01009   2.10488
   A84        2.06221   0.00000   0.00000   0.00286   0.00289   2.06510
   A85        2.13139   0.00000   0.00000   0.00450   0.00445   2.13584
   A86        2.07099   0.00000   0.00000   0.00269   0.00271   2.07369
   A87        2.08079  -0.00000   0.00000  -0.00715  -0.00714   2.07366
   A88        2.05477  -0.00000   0.00000  -0.00726  -0.00730   2.04747
   A89        2.12269   0.00000   0.00000  -0.00068  -0.00066   2.12203
   A90        2.10564   0.00000   0.00000   0.00793   0.00795   2.11359
   A91        2.13038   0.00001   0.00000   0.00847   0.00849   2.13887
   A92        2.11466   0.00000   0.00000   0.00459   0.00455   2.11921
   A93        2.03813  -0.00001   0.00000  -0.01308  -0.01306   2.02506
   A94        1.90738   0.00000   0.00000   0.00126   0.00126   1.90864
   A95        2.11938  -0.00000   0.00000   0.00409   0.00405   2.12343
   A96        2.13553   0.00001   0.00000   0.01466   0.01468   2.15021
   A97        2.02826  -0.00001   0.00000  -0.01875  -0.01873   2.00953
    D1       -2.96659   0.00000   0.00000  -0.01757  -0.01759  -2.98418
    D2       -0.78095   0.00000   0.00000  -0.02005  -0.02004  -0.80099
    D3        1.29487  -0.00000   0.00000  -0.02902  -0.02906   1.26581
    D4        1.22484   0.00000   0.00000  -0.02305  -0.02303   1.20180
    D5       -2.87271   0.00000   0.00000  -0.02553  -0.02548  -2.89819
    D6       -0.79689  -0.00000   0.00000  -0.03450  -0.03450  -0.83139
    D7       -0.85811  -0.00000   0.00000  -0.03301  -0.03302  -0.89113
    D8        1.32752  -0.00000   0.00000  -0.03549  -0.03547   1.29206
    D9       -2.87984  -0.00000   0.00000  -0.04446  -0.04449  -2.92433
   D10        1.30191  -0.00000   0.00000   0.01210   0.01207   1.31398
   D11       -2.83793  -0.00000   0.00000   0.01789   0.01785  -2.82009
   D12       -0.79764  -0.00000   0.00000   0.01117   0.01117  -0.78647
   D13       -0.91136   0.00000   0.00000   0.03918   0.03914  -0.87222
   D14        1.23198   0.00000   0.00000   0.04498   0.04491   1.27690
   D15       -3.01091   0.00000   0.00000   0.03825   0.03824  -2.97267
   D16       -2.92259  -0.00000   0.00000   0.02637   0.02634  -2.89625
   D17       -0.77925  -0.00000   0.00000   0.03217   0.03212  -0.74713
   D18        1.26104  -0.00000   0.00000   0.02544   0.02545   1.28649
   D19       -1.45415  -0.00001   0.00000  -0.05764  -0.05773  -1.51188
   D20        1.29125  -0.00000   0.00000   0.04745   0.04766   1.33891
   D21        0.74117  -0.00000   0.00000  -0.06552  -0.06566   0.67551
   D22       -2.79662  -0.00000   0.00000   0.03957   0.03973  -2.75688
   D23        2.73457  -0.00000   0.00000  -0.05236  -0.05253   2.68204
   D24       -0.80322   0.00000   0.00000   0.05273   0.05286  -0.75035
   D25       -2.87469   0.00000   0.00000   0.00249   0.00243  -2.87225
   D26        1.13235   0.00000   0.00000   0.00153   0.00137   1.13372
   D27        1.29421   0.00000   0.00000  -0.00345  -0.00341   1.29079
   D28       -0.98194   0.00000   0.00000  -0.00441  -0.00448  -0.98642
   D29       -0.78727   0.00000   0.00000  -0.00061  -0.00064  -0.78791
   D30       -3.06342   0.00000   0.00000  -0.00157  -0.00171  -3.06512
   D31       -1.11394  -0.00000   0.00000  -0.12804  -0.12796  -1.24190
   D32        1.02706   0.00000   0.00000  -0.12150  -0.12151   0.90555
   D33        3.02814  -0.00000   0.00000  -0.13164  -0.13171   2.89643
   D34        1.10725   0.00000   0.00000  -0.12528  -0.12520   0.98205
   D35       -3.03493   0.00000   0.00000  -0.11874  -0.11875   3.12951
   D36       -1.03386   0.00000   0.00000  -0.12888  -0.12895  -1.16281
   D37       -1.13257   0.00000   0.00000  -0.02084  -0.02076  -1.15332
   D38        0.98217   0.00000   0.00000  -0.01710  -0.01705   0.96512
   D39        3.06369   0.00000   0.00000  -0.01674  -0.01664   3.04705
   D40        2.87427  -0.00000   0.00000  -0.02848  -0.02847   2.84580
   D41       -1.29418  -0.00000   0.00000  -0.02474  -0.02476  -1.31894
   D42        0.78735  -0.00000   0.00000  -0.02438  -0.02435   0.76299
   D43        3.13526   0.00000   0.00000   0.03121   0.03126  -3.11666
   D44       -1.03206   0.00000   0.00000   0.01268   0.01269  -1.01936
   D45        1.01951   0.00000   0.00000   0.01610   0.01614   1.03565
   D46        1.00423   0.00000   0.00000   0.03593   0.03593   1.04016
   D47        3.12010   0.00000   0.00000   0.01740   0.01736   3.13745
   D48       -1.11152   0.00000   0.00000   0.02082   0.02081  -1.09072
   D49       -1.01666   0.00000   0.00000   0.04780   0.04780  -0.96886
   D50        1.09921   0.00000   0.00000   0.02927   0.02923   1.12844
   D51       -3.13242   0.00000   0.00000   0.03270   0.03268  -3.09974
   D52       -3.13991  -0.00000   0.00000  -0.03534  -0.03548   3.10780
   D53        1.01807  -0.00000   0.00000  -0.03753  -0.03752   0.98054
   D54       -1.01576  -0.00000   0.00000  -0.03291  -0.03277  -1.04853
   D55        1.01558  -0.00000   0.00000  -0.03533  -0.03549   0.98010
   D56       -1.10963  -0.00000   0.00000  -0.03752  -0.03753  -1.14715
   D57        3.13974   0.00000   0.00000  -0.03290  -0.03278   3.10696
   D58       -1.01263  -0.00000   0.00000  -0.02147  -0.02160  -1.03423
   D59       -3.13784   0.00000   0.00000  -0.02366  -0.02364   3.12170
   D60        1.11152   0.00000   0.00000  -0.01904  -0.01889   1.09263
   D61       -1.56948   0.00001   0.00000   0.09122   0.09107  -1.47841
   D62        1.52609   0.00001   0.00000   0.15064   0.15055   1.67664
   D63        0.55157  -0.00000   0.00000   0.07338   0.07338   0.62494
   D64       -2.63605   0.00000   0.00000   0.13280   0.13285  -2.50320
   D65        2.59414  -0.00000   0.00000   0.06561   0.06568   2.65982
   D66       -0.59347   0.00000   0.00000   0.12503   0.12515  -0.46832
   D67        3.09871   0.00000   0.00000   0.04865   0.04863  -3.13585
   D68       -0.04727   0.00000   0.00000   0.05806   0.05800   0.01073
   D69        0.00208  -0.00000   0.00000  -0.00949  -0.00946  -0.00738
   D70        3.13928  -0.00000   0.00000  -0.00007  -0.00008   3.13920
   D71       -3.09845  -0.00000   0.00000  -0.06335  -0.06335   3.12139
   D72        0.04789  -0.00000   0.00000  -0.05691  -0.05691  -0.00902
   D73       -0.00176  -0.00000   0.00000  -0.00530  -0.00532  -0.00709
   D74       -3.13861  -0.00000   0.00000   0.00114   0.00112  -3.13750
   D75       -0.00164   0.00000   0.00000   0.02180   0.02180   0.02015
   D76        3.13715   0.00000   0.00000   0.01358   0.01358  -3.13246
   D77       -3.13882   0.00000   0.00000   0.01237   0.01233  -3.12649
   D78       -0.00003   0.00000   0.00000   0.00415   0.00411   0.00409
   D79        0.00084  -0.00000   0.00000  -0.01907  -0.01906  -0.01822
   D80        3.13894  -0.00000   0.00000   0.00009   0.00005   3.13899
   D81       -3.13795  -0.00000   0.00000  -0.01083  -0.01083   3.13441
   D82        0.00016   0.00000   0.00000   0.00832   0.00828   0.00844
   D83       -0.00053   0.00000   0.00000   0.00442   0.00443   0.00390
   D84        3.13765   0.00000   0.00000   0.00585   0.00587  -3.13967
   D85       -3.13863  -0.00000   0.00000  -0.01471  -0.01475   3.12980
   D86       -0.00045  -0.00000   0.00000  -0.01328  -0.01332  -0.01377
   D87        0.00101   0.00000   0.00000   0.00783   0.00782   0.00884
   D88        3.13784   0.00000   0.00000   0.00135   0.00134   3.13918
   D89       -3.13717   0.00000   0.00000   0.00641   0.00639  -3.13078
   D90       -0.00035   0.00000   0.00000  -0.00007  -0.00008  -0.00043
   D91       -1.30009   0.00000   0.00000   0.01990   0.02000  -1.28008
   D92        0.91234  -0.00000   0.00000  -0.00504  -0.00494   0.90740
   D93        2.92375   0.00000   0.00000   0.00987   0.00998   2.93373
   D94        2.83973   0.00000   0.00000   0.01380   0.01385   2.85358
   D95       -1.23103  -0.00000   0.00000  -0.01115  -0.01109  -1.24212
   D96        0.78038   0.00000   0.00000   0.00377   0.00383   0.78421
   D97        0.79887   0.00000   0.00000   0.01600   0.01602   0.81489
   D98        3.01130  -0.00000   0.00000  -0.00895  -0.00893   3.00237
   D99       -1.26048   0.00000   0.00000   0.00597   0.00599  -1.25449
   D100       0.84823   0.00000   0.00000  -0.01192  -0.01188   0.83635
   D101       2.95712  -0.00000   0.00000  -0.02384  -0.02374   2.93338
   D102      -1.23364   0.00000   0.00000  -0.01881  -0.01876  -1.25240
   D103      -1.33692  -0.00000   0.00000  -0.00560  -0.00571  -1.34263
   D104       0.77196  -0.00000   0.00000  -0.01752  -0.01756   0.75440
   D105       2.86439  -0.00000   0.00000  -0.01248  -0.01258   2.85181
   D106       2.87078   0.00000   0.00000  -0.00530  -0.00531   2.86547
   D107      -1.30352   0.00000   0.00000  -0.01722  -0.01716  -1.32068
   D108       0.78891   0.00000   0.00000  -0.01219  -0.01218   0.77673
   D109      -0.74192   0.00000   0.00000   0.04773   0.04780  -0.69412
   D110       2.79585  -0.00000   0.00000  -0.05901  -0.05883   2.73702
   D111       1.45195   0.00000   0.00000   0.03835   0.03835   1.49030
   D112      -1.29346  -0.00000   0.00000  -0.06840  -0.06828  -1.36174
   D113      -2.73645  -0.00000   0.00000   0.03753   0.03748  -2.69896
   D114       0.80133  -0.00000   0.00000  -0.06922  -0.06914   0.73218
   D115       0.20657  -0.00000   0.00000  -0.04799  -0.04820   0.15837
   D116      -2.94485   0.00000   0.00000  -0.03611  -0.03626  -2.98112
   D117       2.94957   0.00000   0.00000   0.05784   0.05799   3.00756
   D118      -0.20185   0.00000   0.00000   0.06972   0.06993  -0.13192
   D119       3.10044   0.00000   0.00000  -0.00060  -0.00075   3.09969
   D120      -0.04855   0.00000   0.00000  -0.00225  -0.00235  -0.05090
   D121      -0.03175  -0.00000   0.00000  -0.01215  -0.01213  -0.04388
   D122       3.10245  -0.00000   0.00000  -0.01380  -0.01374   3.08871
   D123      -3.09878  -0.00000   0.00000   0.01350   0.01340  -3.08538
   D124       0.04843  -0.00000   0.00000   0.01283   0.01274   0.06117
   D125       0.03344   0.00000   0.00000   0.02486   0.02478   0.05822
   D126      -3.10253   0.00000   0.00000   0.02419   0.02411  -3.07842
   D127       0.01157  -0.00000   0.00000  -0.00632  -0.00631   0.00526
   D128      -3.13661  -0.00000   0.00000   0.00048   0.00050  -3.13611
   D129      -3.12285  -0.00000   0.00000  -0.00465  -0.00468  -3.12754
   D130       0.01215  -0.00000   0.00000   0.00214   0.00213   0.01428
   D131       0.00830   0.00000   0.00000   0.01240   0.01241   0.02071
   D132       3.13648  -0.00000   0.00000   0.01152   0.01149  -3.13522
   D133      -3.12667   0.00000   0.00000   0.00554   0.00556  -3.12111
   D134       0.00151  -0.00000   0.00000   0.00465   0.00464   0.00614
   D135       3.12795   0.00000   0.00000  -0.00261  -0.00270   3.12525
   D136      -0.00677  -0.00000   0.00000   0.00049   0.00045  -0.00632
   D137      -0.00037   0.00000   0.00000  -0.00166  -0.00171  -0.00207
   D138      -3.13509   0.00000   0.00000   0.00144   0.00144  -3.13365
   D139      -0.00325  -0.00001   0.00000  -0.19175  -0.19174  -0.19499
   D140       3.13175  -0.00000   0.00000  -0.19465  -0.19466   2.93709
   D141      -0.01476  -0.00000   0.00000  -0.01984  -0.01992  -0.03468
   D142       3.12154  -0.00000   0.00000  -0.01911  -0.01920   3.10234
   D143       3.13336  -0.00000   0.00000  -0.01697  -0.01704   3.11631
   D144      -0.01353  -0.00000   0.00000  -0.01624  -0.01633  -0.02985
         Item               Value     Threshold  Converged?
 Maximum Force            0.000018     0.000450     YES
 RMS     Force            0.000003     0.000300     YES
 Maximum Displacement     0.723926     0.001800     NO 
 RMS     Displacement     0.145594     0.001200     NO 
 Predicted change in Energy=-8.869606D-04
 GradGradGradGradGradGradGradGradGradGradGradGradGradGradGradGradGradGrad

 Symmetry turned off by external request.
 Stoichiometry    C21H28N2O
 Framework group  C1[X(C21H28N2O)]
 Deg. of freedom   150
 Full point group                 C1      NOp   1

 IF YOU GIVE A BOY AND A PIG EVERYTHING THEY WANT,
 YOU'LL GET A BAD BOY AND A GOOD PIG.
 Error termination request processed by link 9999.
 Error termination via Lnk1e in /hpc/apps/current/gaussian/vg16_b01_avx2.app/g16/l9999.exe at Thu Jun 23 19:16:23 2022.
 Job cpu time:       4 days 15 hours 40 minutes 18.2 seconds.
 Elapsed time:       0 days  4 hours 46 minutes 54.7 seconds.
 File lengths (MBytes):  RWF=    553 Int=      0 D2E=      0 Chk=     24 Scr=      1
