 Entering Gaussian System, Link 0=/opt/gaussian/g16/C01/g16/g16
 Input=p0_CFH3_sp_g16.com
 Output=p0_CFH3_sp_g16.log
 Initial command:
 /opt/gaussian/g16/C01/g16/l1.exe "/home/thijs/scratch/Gau-2621398.inp" -scrdir="/home/thijs/scratch/"
 Entering Link 1 = /opt/gaussian/g16/C01/g16/l1.exe PID=   2621399.
  
 Copyright (c) 1988-2019, Gaussian, Inc.  All Rights Reserved.
  
 This is part of the Gaussian(R) 16 program.  It is based on
 the Gaussian(R) 09 system (copyright 2009, Gaussian, Inc.),
 the Gaussian(R) 03 system (copyright 2003, Gaussian, Inc.),
 the Gaussian(R) 98 system (copyright 1998, Gaussian, Inc.),
 the Gaussian(R) 94 system (copyright 1995, Gaussian, Inc.),
 the Gaussian 92(TM) system (copyright 1992, Gaussian, Inc.),
 the Gaussian 90(TM) system (copyright 1990, Gaussian, Inc.),
 the Gaussian 88(TM) system (copyright 1988, Gaussian, Inc.),
 the Gaussian 86(TM) system (copyright 1986, Carnegie Mellon
 University), and the Gaussian 82(TM) system (copyright 1983,
 Carnegie Mellon University). Gaussian is a federally registered
 trademark of Gaussian, Inc.
  
 This software contains proprietary and confidential information,
 including trade secrets, belonging to Gaussian, Inc.
  
 This software is provided under written license and may be
 used, copied, transmitted, or stored only in accord with that
 written license.
  
 The following legend is applicable only to US Government
 contracts under FAR:
  
                    RESTRICTED RIGHTS LEGEND
  
 Use, reproduction and disclosure by the US Government is
 subject to restrictions as set forth in subparagraphs (a)
 and (c) of the Commercial Computer Software - Restricted
 Rights clause in FAR 52.227-19.
  
 Gaussian, Inc.
 340 Quinnipiac St., Bldg. 40, Wallingford CT 06492
  
  
 ---------------------------------------------------------------
 Warning -- This program may not be used in any manner that
 competes with the business of Gaussian, Inc. or will provide
 assistance to any competitor of Gaussian, Inc.  The licensee
 of this program is prohibited from giving any competitor of
 Gaussian, Inc. access to this program.  By using this program,
 the user acknowledges that Gaussian, Inc. is engaged in the
 business of creating and licensing software in the field of
 computational chemistry and represents and warrants to the
 licensee that it is not a competitor of Gaussian, Inc. and that
 it will not use this program in any manner prohibited above.
 ---------------------------------------------------------------
  

 Cite this work as:
 Gaussian 16, Revision C.01,
 M. J. Frisch, G. W. Trucks, H. B. Schlegel, G. E. Scuseria, 
 M. A. Robb, J. R. Cheeseman, G. Scalmani, V. Barone, 
 G. A. Petersson, H. Nakatsuji, X. Li, M. Caricato, A. V. Marenich, 
 J. Bloino, B. G. Janesko, R. Gomperts, B. Mennucci, H. P. Hratchian, 
 J. V. Ortiz, A. F. Izmaylov, J. L. Sonnenberg, D. Williams-Young, 
 F. Ding, F. Lipparini, F. Egidi, J. Goings, B. Peng, A. Petrone, 
 T. Henderson, D. Ranasinghe, V. G. Zakrzewski, J. Gao, N. Rega, 
 G. Zheng, W. Liang, M. Hada, M. Ehara, K. Toyota, R. Fukuda, 
 J. Hasegawa, M. Ishida, T. Nakajima, Y. Honda, O. Kitao, H. Nakai, 
 T. Vreven, K. Throssell, J. A. Montgomery, Jr., J. E. Peralta, 
 F. Ogliaro, M. J. Bearpark, J. J. Heyd, E. N. Brothers, K. N. Kudin, 
 V. N. Staroverov, T. A. Keith, R. Kobayashi, J. Normand, 
 K. Raghavachari, A. P. Rendell, J. C. Burant, S. S. Iyengar, 
 J. Tomasi, M. Cossi, J. M. Millam, M. Klene, C. Adamo, R. Cammi, 
 J. W. Ochterski, R. L. Martin, K. Morokuma, O. Farkas, 
 J. B. Foresman, and D. J. Fox, Gaussian, Inc., Wallingford CT, 2019.
 
 ******************************************
 Gaussian 16:  ES64L-G16RevC.01  3-Jul-2019
                31-May-2024 
 ******************************************
 %mem=16000MB
 %nprocshared=4
 Will use up to    4 processors via shared memory.
 ---------------------------------------------------------------------
 # PBE1PBE Def2TZVP EmpiricalDispersion=GD3BJ scrf=(smd,solvent=Water)
 ---------------------------------------------------------------------
 1/38=1,172=1/1;
 2/12=2,17=6,18=5,40=1/2;
 3/5=44,7=101,11=2,25=1,30=1,70=32201,72=1,74=-13,124=41/1,2,3;
 4//1;
 5/5=2,38=5,53=1/2;
 6/7=2,8=2,9=2,10=2,28=1/1;
 99/5=1,9=1/99;
 --------------
 p0_CFH3_sp_g16
 --------------
 Symbolic Z-matrix:
 Charge =  0 Multiplicity = 1
 C                    -0.05334   0.00492  -0.00293 
 F                     1.31569  -0.12126   0.07188 
 H                    -0.31029   0.92004  -0.55924 
 H                    -0.47722  -0.86877  -0.52242 
 H                    -0.47494   0.06517   1.01271 
 
                          Input orientation:                          
 ---------------------------------------------------------------------
 Center     Atomic      Atomic             Coordinates (Angstroms)
 Number     Number       Type             X           Y           Z
 ---------------------------------------------------------------------
      1          6           0       -0.053336    0.004921   -0.002926
      2          9           0        1.315689   -0.121261    0.071878
      3          1           0       -0.310288    0.920039   -0.559237
      4          1           0       -0.477223   -0.868771   -0.522423
      5          1           0       -0.474943    0.065173    1.012708
 ---------------------------------------------------------------------
                    Distance matrix (angstroms):
                    1          2          3          4          5
     1  C    0.000000
     2  F    1.376861   0.000000
     3  H    1.101339   2.031357   0.000000
     4  H    1.101315   2.031378   1.796960   0.000000
     5  H    1.101315   2.031325   1.796919   1.796910   0.000000
 Stoichiometry    CH3F
 Framework group  C1[X(CH3F)]
 Deg. of freedom     9
 Full point group                 C1      NOp   1
 Largest Abelian subgroup         C1      NOp   1
 Largest concise Abelian subgroup C1      NOp   1
                         Standard orientation:                         
 ---------------------------------------------------------------------
 Center     Atomic      Atomic             Coordinates (Angstroms)
 Number     Number       Type             X           Y           Z
 ---------------------------------------------------------------------
      1          6           0       -0.626833   -0.000005   -0.000005
      2          9           0        0.750028   -0.000002   -0.000003
      3          1           0       -0.996414    0.941759   -0.435250
      4          1           0       -0.996460   -0.847825   -0.597895
      5          1           0       -0.996385   -0.093892    1.033200
 ---------------------------------------------------------------------
 Rotational constants (GHZ):         155.2994896          25.7507869          25.7506410
 Standard basis: def2TZVP (5D, 7F)
 There are    90 symmetry adapted cartesian basis functions of A   symmetry.
 There are    80 symmetry adapted basis functions of A   symmetry.
    80 basis functions,   126 primitive gaussians,    90 cartesian basis functions
     9 alpha electrons        9 beta electrons
       nuclear repulsion energy        37.3200955386 Hartrees.
 NAtoms=    5 NActive=    5 NUniq=    5 SFac= 1.00D+00 NAtFMM=   60 NAOKFM=F Big=F
 Integral buffers will be    131072 words long.
 Raffenetti 2 integral format.
 Two-electron integral symmetry is turned on.
 Nuclear repulsion after empirical dispersion term =       37.3190786671 Hartrees.
 ------------------------------------------------------------------------------
 Polarizable Continuum Model (PCM)
 =================================
 Model                : PCM.
 Atomic radii         : SMD-Coulomb.
 Polarization charges : Total charges.
 Charge compensation  : None.
 Solution method      : On-the-fly selection.
 Cavity type          : VdW (van der Waals Surface) (Alpha=1.000).
 Cavity algorithm     : GePol (No added spheres)
                        Default sphere list used, NSphG=    5.
                        Lebedev-Laikov grids with approx.  5.0 points / Ang**2.
                        Smoothing algorithm: York/Karplus (Gamma=1.0000).
                        Polarization charges: spherical gaussians, with
                                              point-specific exponents (IZeta= 3).
                        Self-potential: point-specific (ISelfS= 7).
                        Self-field    : sphere-specific E.n sum rule (ISelfD= 2).
 Solvent              : Water, Eps=  78.355300 Eps(inf)=   1.777849
 ------------------------------------------------------------------------------
 Spheres list:
 ISph  on   Nord     Re0    Alpha      Xe            Ye            Ze
    1   C      1    1.8500  1.000     -0.626833     -0.000005     -0.000005
    2   F      2    1.7300  1.000      0.750028     -0.000002     -0.000003
    3   H      3    1.2000  1.000     -0.996414      0.941759     -0.435250
    4   H      4    1.2000  1.000     -0.996460     -0.847825     -0.597895
    5   H      5    1.2000  1.000     -0.996385     -0.093892      1.033200
 ------------------------------------------------------------------------------
 ------------------------------------------------------------------------------
 Atomic radii for non-electrostatic terms: SMD-CDS.
 ------------------------------------------------------------------------------
 Nuclear repulsion after PCM non-electrostatic terms =       37.3240219124 Hartrees.
 One-electron integrals computed using PRISM.
   1 Symmetry operations used in ECPInt.
 ECPInt:  NShTT=     595 NPrTT=    1764 LenC2=     595 LenP2D=    1623.
 LDataN:  DoStor=T MaxTD1= 6 Len=  172
 NBasis=    80 RedAO= T EigKep=  2.05D-03  NBF=    80
 NBsUse=    80 1.00D-06 EigRej= -1.00D+00 NBFU=    80
 ExpMin= 9.52D-02 ExpMax= 3.55D+04 ExpMxC= 1.21D+03 IAcc=3 IRadAn=         5 AccDes= 0.00D+00
 Harris functional with IExCor= 1009 and IRadAn=       5 diagonalized for initial guess.
 HarFok:  IExCor= 1009 AccDes= 0.00D+00 IRadAn=         5 IDoV= 1 UseB2=F ITyADJ=14
 ICtDFT=  3500011 ScaDFX=  1.000000  1.000000  1.000000  1.000000
 FoFCou: FMM=F IPFlag=           0 FMFlag=      100000 FMFlg1=           0
         NFxFlg=           0 DoJE=T BraDBF=F KetDBF=T FulRan=T
         wScrn=  0.000000 ICntrl=       500 IOpCl=  0 I1Cent=   200000004 NGrid=           0
         NMat0=    1 NMatS0=      1 NMatT0=    0 NMatD0=    1 NMtDS0=    0 NMtDT0=    0
 Petite list used in FoFCou.
 Keep R1 ints in memory in canonical form, NReq=8907966.
 Requested convergence on RMS density matrix=1.00D-08 within 128 cycles.
 Requested convergence on MAX density matrix=1.00D-06.
 Requested convergence on             energy=1.00D-06.
 No special actions if energy rises.
 Inv3:  Mode=1 IEnd=      629292.
 Iteration    1 A*A^-1 deviation from unit magnitude is 3.22D-15 for    285.
 Iteration    1 A*A^-1 deviation from orthogonality  is 2.08D-15 for    285     84.
 Iteration    1 A^-1*A deviation from unit magnitude is 2.33D-15 for    450.
 Iteration    1 A^-1*A deviation from orthogonality  is 8.25D-14 for    352    285.
 Error on total polarization charges =  0.01852
 SCF Done:  E(RPBE1PBE) =  -139.654644727     A.U. after    9 cycles
            NFock=  9  Conv=0.17D-08     -V/T= 2.0039
 SMD-CDS (non-electrostatic) energy       (kcal/mol) =       3.10
 (included in total energy above)

 **********************************************************************

            Population analysis using the SCF Density.

 **********************************************************************

 Orbital symmetries:
       Occupied  (A) (A) (A) (A) (A) (A) (A) (A) (A)
       Virtual   (A) (A) (A) (A) (A) (A) (A) (A) (A) (A) (A) (A)
                 (A) (A) (A) (A) (A) (A) (A) (A) (A) (A) (A) (A)
                 (A) (A) (A) (A) (A) (A) (A) (A) (A) (A) (A) (A)
                 (A) (A) (A) (A) (A) (A) (A) (A) (A) (A) (A) (A)
                 (A) (A) (A) (A) (A) (A) (A) (A) (A) (A) (A) (A)
                 (A) (A) (A) (A) (A) (A) (A) (A) (A) (A) (A)
 The electronic state is 1-A.
 Alpha  occ. eigenvalues --  -24.75412 -10.27886  -1.22706  -0.70923  -0.50552
 Alpha  occ. eigenvalues --   -0.49317  -0.49316  -0.35395  -0.35394
 Alpha virt. eigenvalues --    0.07469   0.09405   0.14215   0.14216   0.22784
 Alpha virt. eigenvalues --    0.22786   0.30723   0.35586   0.46304   0.46305
 Alpha virt. eigenvalues --    0.47894   0.54614   0.59622   0.59622   0.74225
 Alpha virt. eigenvalues --    0.74225   0.92768   0.92768   0.96049   1.03893
 Alpha virt. eigenvalues --    1.45430   1.46255   1.46256   1.52590   1.67033
 Alpha virt. eigenvalues --    1.70578   1.70580   1.89477   1.89478   1.97028
 Alpha virt. eigenvalues --    2.22347   2.22351   2.27983   2.30129   2.30131
 Alpha virt. eigenvalues --    2.39279   2.51952   2.51953   2.71146   2.71149
 Alpha virt. eigenvalues --    2.84885   2.95298   2.95299   3.20282   3.20283
 Alpha virt. eigenvalues --    3.27048   3.32614   3.44813   3.44815   3.53115
 Alpha virt. eigenvalues --    3.73175   3.73177   3.80102   4.18113   4.18119
 Alpha virt. eigenvalues --    4.35021   5.07621   6.90239   6.90438   6.98627
 Alpha virt. eigenvalues --    6.98627   7.24115   7.24116   7.29889   8.38088
 Alpha virt. eigenvalues --    8.38088   8.77172   8.77173   9.01880  22.27005
 Alpha virt. eigenvalues --   57.05625
          Condensed to atoms (all electrons):
               1          2          3          4          5
     1  C    4.710444   0.220913   0.408029   0.408014   0.408058
     2  F    0.220913   9.165558  -0.036263  -0.036256  -0.036256
     3  H    0.408029  -0.036263   0.553206  -0.034671  -0.034662
     4  H    0.408014  -0.036256  -0.034671   0.553188  -0.034659
     5  H    0.408058  -0.036256  -0.034662  -0.034659   0.553107
 Mulliken charges:
               1
     1  C   -0.155460
     2  F   -0.277696
     3  H    0.144360
     4  H    0.144385
     5  H    0.144411
 Sum of Mulliken charges =  -0.00000
 Mulliken charges with hydrogens summed into heavy atoms:
               1
     1  C    0.277696
     2  F   -0.277696
 Electronic spatial extent (au):  <R**2>=             75.3099
 Charge=             -0.0000 electrons
 Dipole moment (field-independent basis, Debye):
    X=             -2.1797    Y=             -0.0003    Z=              0.0004  Tot=              2.1797
 Quadrupole moment (field-independent basis, Debye-Ang):
   XX=            -12.3014   YY=            -11.7677   ZZ=            -11.7677
   XY=              0.0002   XZ=             -0.0002   YZ=              0.0001
 Traceless Quadrupole moment (field-independent basis, Debye-Ang):
   XX=             -0.3558   YY=              0.1779   ZZ=              0.1779
   XY=              0.0002   XZ=             -0.0002   YZ=              0.0001
 Octapole moment (field-independent basis, Debye-Ang**2):
  XXX=              3.5122  YYY=              0.1982  ZZZ=              0.7131  XYY=              0.9180
  XXY=             -0.0003  XXZ=              0.0002  XZZ=              0.9182  YZZ=             -0.1988
  YYZ=             -0.7120  XYZ=             -0.0001
 Hexadecapole moment (field-independent basis, Debye-Ang**3):
 XXXX=            -51.0550 YYYY=            -16.9823 ZZZZ=            -16.9817 XXXY=              0.0005
 XXXZ=             -0.0002 YYYX=             -0.2251 YYYZ=              0.0002 ZZZX=             -0.8088
 ZZZY=              0.0001 XXYY=            -11.0554 XXZZ=            -11.0556 YYZZ=             -5.6609
 XXYZ=              0.0002 YYXZ=              0.8081 ZZXY=              0.2255
 N-N= 3.732402191243D+01 E-N=-4.056030113850D+02  KE= 1.391107171335D+02
 Unable to Open any file for archive entry.
 1\1\GINC-DALE\SP\RPBE1PBE\def2TZVP\C1H3F1\THIJS\31-May-2024\0\\# PBE1P
 BE Def2TZVP EmpiricalDispersion=GD3BJ scrf=(smd,solvent=Water)\\p0_CFH
 3_sp_g16\\0,1\C,0,-0.053336,0.004921,-0.002926\F,0,1.315689,-0.121261,
 0.071878\H,0,-0.310288,0.920039,-0.559237\H,0,-0.477223,-0.868771,-0.5
 22423\H,0,-0.474943,0.065173,1.012708\\Version=ES64L-G16RevC.01\State=
 1-A\HF=-139.6546447\RMSD=1.656e-09\Dipole=-0.8527076,0.0785068,-0.0464
 098\Quadrupole=-0.2599588,0.1289344,0.1310244,0.0363078,-0.0216031,0.0
 020673\PG=C01 [X(C1H3F1)]\\@
 The archive entry for this job was punched.


 The chemist is a guest at the physicist's table and
 frequently dines well.
                   -- Richard Bersohn
 Job cpu time:       0 days  0 hours  0 minutes 49.9 seconds.
 Elapsed time:       0 days  0 hours  0 minutes 15.8 seconds.
 File lengths (MBytes):  RWF=     10 Int=      0 D2E=      0 Chk=      2 Scr=      1
 Normal termination of Gaussian 16 at Fri May 31 17:52:35 2024.
