 Entering Gaussian System, Link 0=/opt/gaussian/g16/C01/g16/g16
 Input=r0_CClH3_sp_g16.com
 Output=r0_CClH3_sp_g16.log
 Initial command:
 /opt/gaussian/g16/C01/g16/l1.exe "/home/thijs/scratch/Gau-2621326.inp" -scrdir="/home/thijs/scratch/"
 Entering Link 1 = /opt/gaussian/g16/C01/g16/l1.exe PID=   2621327.
  
 Copyright (c) 1988-2019, Gaussian, Inc.  All Rights Reserved.
  
 This is part of the Gaussian(R) 16 program.  It is based on
 the Gaussian(R) 09 system (copyright 2009, Gaussian, Inc.),
 the Gaussian(R) 03 system (copyright 2003, Gaussian, Inc.),
 the Gaussian(R) 98 system (copyright 1998, Gaussian, Inc.),
 the Gaussian(R) 94 system (copyright 1995, Gaussian, Inc.),
 the Gaussian 92(TM) system (copyright 1992, Gaussian, Inc.),
 the Gaussian 90(TM) system (copyright 1990, Gaussian, Inc.),
 the Gaussian 88(TM) system (copyright 1988, Gaussian, Inc.),
 the Gaussian 86(TM) system (copyright 1986, Carnegie Mellon
 University), and the Gaussian 82(TM) system (copyright 1983,
 Carnegie Mellon University). Gaussian is a federally registered
 trademark of Gaussian, Inc.
  
 This software contains proprietary and confidential information,
 including trade secrets, belonging to Gaussian, Inc.
  
 This software is provided under written license and may be
 used, copied, transmitted, or stored only in accord with that
 written license.
  
 The following legend is applicable only to US Government
 contracts under FAR:
  
                    RESTRICTED RIGHTS LEGEND
  
 Use, reproduction and disclosure by the US Government is
 subject to restrictions as set forth in subparagraphs (a)
 and (c) of the Commercial Computer Software - Restricted
 Rights clause in FAR 52.227-19.
  
 Gaussian, Inc.
 340 Quinnipiac St., Bldg. 40, Wallingford CT 06492
  
  
 ---------------------------------------------------------------
 Warning -- This program may not be used in any manner that
 competes with the business of Gaussian, Inc. or will provide
 assistance to any competitor of Gaussian, Inc.  The licensee
 of this program is prohibited from giving any competitor of
 Gaussian, Inc. access to this program.  By using this program,
 the user acknowledges that Gaussian, Inc. is engaged in the
 business of creating and licensing software in the field of
 computational chemistry and represents and warrants to the
 licensee that it is not a competitor of Gaussian, Inc. and that
 it will not use this program in any manner prohibited above.
 ---------------------------------------------------------------
  

 Cite this work as:
 Gaussian 16, Revision C.01,
 M. J. Frisch, G. W. Trucks, H. B. Schlegel, G. E. Scuseria, 
 M. A. Robb, J. R. Cheeseman, G. Scalmani, V. Barone, 
 G. A. Petersson, H. Nakatsuji, X. Li, M. Caricato, A. V. Marenich, 
 J. Bloino, B. G. Janesko, R. Gomperts, B. Mennucci, H. P. Hratchian, 
 J. V. Ortiz, A. F. Izmaylov, J. L. Sonnenberg, D. Williams-Young, 
 F. Ding, F. Lipparini, F. Egidi, J. Goings, B. Peng, A. Petrone, 
 T. Henderson, D. Ranasinghe, V. G. Zakrzewski, J. Gao, N. Rega, 
 G. Zheng, W. Liang, M. Hada, M. Ehara, K. Toyota, R. Fukuda, 
 J. Hasegawa, M. Ishida, T. Nakajima, Y. Honda, O. Kitao, H. Nakai, 
 T. Vreven, K. Throssell, J. A. Montgomery, Jr., J. E. Peralta, 
 F. Ogliaro, M. J. Bearpark, J. J. Heyd, E. N. Brothers, K. N. Kudin, 
 V. N. Staroverov, T. A. Keith, R. Kobayashi, J. Normand, 
 K. Raghavachari, A. P. Rendell, J. C. Burant, S. S. Iyengar, 
 J. Tomasi, M. Cossi, J. M. Millam, M. Klene, C. Adamo, R. Cammi, 
 J. W. Ochterski, R. L. Martin, K. Morokuma, O. Farkas, 
 J. B. Foresman, and D. J. Fox, Gaussian, Inc., Wallingford CT, 2019.
 
 ******************************************
 Gaussian 16:  ES64L-G16RevC.01  3-Jul-2019
                31-May-2024 
 ******************************************
 %mem=16000MB
 %nprocshared=4
 Will use up to    4 processors via shared memory.
 ---------------------------------------------------------------------
 # PBE1PBE Def2TZVP EmpiricalDispersion=GD3BJ scrf=(smd,solvent=Water)
 ---------------------------------------------------------------------
 1/38=1,172=1/1;
 2/12=2,17=6,18=5,40=1/2;
 3/5=44,7=101,11=2,25=1,30=1,70=32201,72=1,74=-13,124=41/1,2,3;
 4//1;
 5/5=2,38=5,53=1/2;
 6/7=2,8=2,9=2,10=2,28=1/1;
 99/5=1,9=1/99;
 ---------------
 r0_CClH3_sp_g16
 ---------------
 Symbolic Z-matrix:
 Charge =  0 Multiplicity = 1
 C                    -0.14501  -0.00697   0.00091 
 Cl                    1.63716   0.07892  -0.00993 
 H                    -0.47712  -0.55606  -0.88848 
 H                    -0.46748  -0.52894   0.90995 
 H                    -0.54765   1.01306  -0.01235 
 
                          Input orientation:                          
 ---------------------------------------------------------------------
 Center     Atomic      Atomic             Coordinates (Angstroms)
 Number     Number       Type             X           Y           Z
 ---------------------------------------------------------------------
      1          6           0       -0.145006   -0.006969    0.000908
      2         17           0        1.637159    0.078917   -0.009930
      3          1           0       -0.477124   -0.556063   -0.888477
      4          1           0       -0.467477   -0.528942    0.909949
      5          1           0       -0.547653    1.013058   -0.012349
 ---------------------------------------------------------------------
                    Distance matrix (angstroms):
                    1          2          3          4          5
     1  C    0.000000
     2  Cl   1.784266   0.000000
     3  H    1.096728   2.375971   0.000000
     4  H    1.096722   2.375955   1.798656   0.000000
     5  H    1.096702   2.376137   1.798531   1.798562   0.000000
 Stoichiometry    CH3Cl
 Framework group  C1[X(CH3Cl)]
 Deg. of freedom     9
 Full point group                 C1      NOp   1
 Largest Abelian subgroup         C1      NOp   1
 Largest concise Abelian subgroup C1      NOp   1
                         Standard orientation:                         
 ---------------------------------------------------------------------
 Center     Atomic      Atomic             Coordinates (Angstroms)
 Number     Number       Type             X           Y           Z
 ---------------------------------------------------------------------
      1          6           0        1.125925    0.000005   -0.000003
      2         17           0       -0.658342   -0.000002    0.000007
      3          1           0        1.478679   -0.831308   -0.622334
      4          1           0        1.478657    0.954624   -0.408760
      5          1           0        1.478924   -0.123318    1.030986
 ---------------------------------------------------------------------
 Rotational constants (GHZ):         155.0140067          13.2638764          13.2637815
 Standard basis: def2TZVP (5D, 7F)
 There are    96 symmetry adapted cartesian basis functions of A   symmetry.
 There are    86 symmetry adapted basis functions of A   symmetry.
    86 basis functions,   144 primitive gaussians,    96 cartesian basis functions
    13 alpha electrons       13 beta electrons
       nuclear repulsion energy        51.1774734351 Hartrees.
 NAtoms=    5 NActive=    5 NUniq=    5 SFac= 1.00D+00 NAtFMM=   60 NAOKFM=F Big=F
 Integral buffers will be    131072 words long.
 Raffenetti 2 integral format.
 Two-electron integral symmetry is turned on.
 Nuclear repulsion after empirical dispersion term =       51.1756651827 Hartrees.
 ------------------------------------------------------------------------------
 Polarizable Continuum Model (PCM)
 =================================
 Model                : PCM.
 Atomic radii         : SMD-Coulomb.
 Polarization charges : Total charges.
 Charge compensation  : None.
 Solution method      : On-the-fly selection.
 Cavity type          : VdW (van der Waals Surface) (Alpha=1.000).
 Cavity algorithm     : GePol (No added spheres)
                        Default sphere list used, NSphG=    5.
                        Lebedev-Laikov grids with approx.  5.0 points / Ang**2.
                        Smoothing algorithm: York/Karplus (Gamma=1.0000).
                        Polarization charges: spherical gaussians, with
                                              point-specific exponents (IZeta= 3).
                        Self-potential: point-specific (ISelfS= 7).
                        Self-field    : sphere-specific E.n sum rule (ISelfD= 2).
 Solvent              : Water, Eps=  78.355300 Eps(inf)=   1.777849
 ------------------------------------------------------------------------------
 Spheres list:
 ISph  on   Nord     Re0    Alpha      Xe            Ye            Ze
    1   C      1    1.8500  1.000      1.125925      0.000005     -0.000003
    2  Cl      2    2.3800  1.000     -0.658342     -0.000002      0.000007
    3   H      3    1.2000  1.000      1.478679     -0.831308     -0.622334
    4   H      4    1.2000  1.000      1.478657      0.954624     -0.408760
    5   H      5    1.2000  1.000      1.478924     -0.123318      1.030986
 ------------------------------------------------------------------------------
 ------------------------------------------------------------------------------
 Atomic radii for non-electrostatic terms: SMD-CDS.
 ------------------------------------------------------------------------------
 Nuclear repulsion after PCM non-electrostatic terms =       51.1793154677 Hartrees.
 One-electron integrals computed using PRISM.
   1 Symmetry operations used in ECPInt.
 ECPInt:  NShTT=     666 NPrTT=    2212 LenC2=     666 LenP2D=    1967.
 LDataN:  DoStor=T MaxTD1= 6 Len=  172
 NBasis=    86 RedAO= T EigKep=  1.92D-03  NBF=    86
 NBsUse=    86 1.00D-06 EigRej= -1.00D+00 NBFU=    86
 ExpMin= 9.52D-02 ExpMax= 6.95D+04 ExpMxC= 2.37D+03 IAcc=3 IRadAn=         5 AccDes= 0.00D+00
 Harris functional with IExCor= 1009 and IRadAn=       5 diagonalized for initial guess.
 HarFok:  IExCor= 1009 AccDes= 0.00D+00 IRadAn=         5 IDoV= 1 UseB2=F ITyADJ=14
 ICtDFT=  3500011 ScaDFX=  1.000000  1.000000  1.000000  1.000000
 FoFCou: FMM=F IPFlag=           0 FMFlag=      100000 FMFlg1=           0
         NFxFlg=           0 DoJE=T BraDBF=F KetDBF=T FulRan=T
         wScrn=  0.000000 ICntrl=       500 IOpCl=  0 I1Cent=   200000004 NGrid=           0
         NMat0=    1 NMatS0=      1 NMatT0=    0 NMatD0=    1 NMtDS0=    0 NMtDT0=    0
 Petite list used in FoFCou.
 Keep R1 ints in memory in canonical form, NReq=10689669.
 Requested convergence on RMS density matrix=1.00D-08 within 128 cycles.
 Requested convergence on MAX density matrix=1.00D-06.
 Requested convergence on             energy=1.00D-06.
 No special actions if energy rises.
 Inv3:  Mode=1 IEnd=     1160652.
 Iteration    1 A*A^-1 deviation from unit magnitude is 2.44D-15 for    589.
 Iteration    1 A*A^-1 deviation from orthogonality  is 1.15D-15 for     88     67.
 Iteration    1 A^-1*A deviation from unit magnitude is 2.44D-15 for    589.
 Iteration    1 A^-1*A deviation from orthogonality  is 2.00D-15 for    580    116.
 Error on total polarization charges =  0.01417
 SCF Done:  E(RPBE1PBE) =  -499.937726679     A.U. after   10 cycles
            NFock= 10  Conv=0.12D-08     -V/T= 2.0017
 SMD-CDS (non-electrostatic) energy       (kcal/mol) =       2.29
 (included in total energy above)

 **********************************************************************

            Population analysis using the SCF Density.

 **********************************************************************

 Orbital symmetries:
       Occupied  (A) (A) (A) (A) (A) (A) (A) (A) (A) (A) (A) (A)
                 (A)
       Virtual   (A) (A) (A) (A) (A) (A) (A) (A) (A) (A) (A) (A)
                 (A) (A) (A) (A) (A) (A) (A) (A) (A) (A) (A) (A)
                 (A) (A) (A) (A) (A) (A) (A) (A) (A) (A) (A) (A)
                 (A) (A) (A) (A) (A) (A) (A) (A) (A) (A) (A) (A)
                 (A) (A) (A) (A) (A) (A) (A) (A) (A) (A) (A) (A)
                 (A) (A) (A) (A) (A) (A) (A) (A) (A) (A) (A) (A)
                 (A)
 The electronic state is 1-A.
 Alpha  occ. eigenvalues -- -101.69193 -10.26479  -9.51780  -7.25193  -7.24355
 Alpha  occ. eigenvalues --   -7.24355  -0.86941  -0.68263  -0.44714  -0.44713
 Alpha  occ. eigenvalues --   -0.42109  -0.30815  -0.30814
 Alpha virt. eigenvalues --    0.03745   0.08098   0.12850   0.12852   0.18915
 Alpha virt. eigenvalues --    0.22970   0.22971   0.29114   0.36021   0.36022
 Alpha virt. eigenvalues --    0.40568   0.41362   0.41363   0.46870   0.46870
 Alpha virt. eigenvalues --    0.49905   0.49906   0.50441   0.66053   0.83173
 Alpha virt. eigenvalues --    0.83179   0.96342   0.96343   0.96507   1.05245
 Alpha virt. eigenvalues --    1.46546   1.49670   1.49674   1.52166   1.68494
 Alpha virt. eigenvalues --    1.74863   1.74865   1.79558   1.79561   1.83328
 Alpha virt. eigenvalues --    1.83328   1.83838   1.95237   1.95237   1.96876
 Alpha virt. eigenvalues --    2.09341   2.10511   2.11032   2.23182   2.23183
 Alpha virt. eigenvalues --    2.28665   2.28667   2.29899   2.31700   2.31704
 Alpha virt. eigenvalues --    2.55026   2.55035   2.77769   2.79914   2.79931
 Alpha virt. eigenvalues --    3.03334   3.03338   3.05782   3.35148   3.40524
 Alpha virt. eigenvalues --    3.40533   3.52588   3.58752   3.58752   4.07586
 Alpha virt. eigenvalues --    4.18019   4.18029   4.39753  10.77981  10.77981
 Alpha virt. eigenvalues --   11.24177  22.05917  25.01694
          Condensed to atoms (all electrons):
               1          2          3          4          5
     1  C    4.858608   0.239609   0.409306   0.409319   0.409306
     2  Cl   0.239609  17.060907  -0.032513  -0.032502  -0.032505
     3  H    0.409306  -0.032513   0.494735  -0.023949  -0.023947
     4  H    0.409319  -0.032502  -0.023949   0.494593  -0.023949
     5  H    0.409306  -0.032505  -0.023947  -0.023949   0.494804
 Mulliken charges:
               1
     1  C   -0.326149
     2  Cl  -0.202996
     3  H    0.176368
     4  H    0.176488
     5  H    0.176290
 Sum of Mulliken charges =  -0.00000
 Mulliken charges with hydrogens summed into heavy atoms:
               1
     1  C    0.202996
     2  Cl  -0.202996
 Electronic spatial extent (au):  <R**2>=            130.9629
 Charge=             -0.0000 electrons
 Dipole moment (field-independent basis, Debye):
    X=              2.5198    Y=              0.0004    Z=             -0.0004  Tot=              2.5198
 Quadrupole moment (field-independent basis, Debye-Ang):
   XX=            -17.6849   YY=            -19.7457   ZZ=            -19.7470
   XY=              0.0003   XZ=              0.0001   YZ=             -0.0002
 Traceless Quadrupole moment (field-independent basis, Debye-Ang):
   XX=              1.3743   YY=             -0.6865   ZZ=             -0.6878
   XY=              0.0003   XZ=              0.0001   YZ=             -0.0002
 Octapole moment (field-independent basis, Debye-Ang**2):
  XXX=              0.1240  YYY=              0.3305  ZZZ=              0.8825  XYY=              1.3042
  XXY=              0.0003  XXZ=              0.0003  XZZ=              1.3029  YZZ=             -0.3294
  YYZ=             -0.8838  XYZ=             -0.0002
 Hexadecapole moment (field-independent basis, Debye-Ang**3):
 XXXX=           -114.2160 YYYY=            -28.0673 ZZZZ=            -28.0701 XXXY=              0.0002
 XXXZ=              0.0018 YYYX=              0.5036 YYYZ=             -0.0004 ZZZX=              1.3469
 ZZZY=             -0.0001 XXYY=            -23.5002 XXZZ=            -23.5015 YYZZ=             -9.3561
 XXYZ=             -0.0004 YYXZ=             -1.3477 ZZXY=             -0.5025
 N-N= 5.117931546775D+01 E-N=-1.289334476255D+03  KE= 4.990882889015D+02
 Unable to Open any file for archive entry.
 1\1\GINC-DALE\SP\RPBE1PBE\def2TZVP\C1H3Cl1\THIJS\31-May-2024\0\\# PBE1
 PBE Def2TZVP EmpiricalDispersion=GD3BJ scrf=(smd,solvent=Water)\\r0_CC
 lH3_sp_g16\\0,1\C,0,-0.145006,-0.006969,0.000908\Cl,0,1.637159,0.07891
 7,-0.00993\H,0,-0.477124,-0.556063,-0.888477\H,0,-0.467477,-0.528942,0
 .909949\H,0,-0.547653,1.013058,-0.012349\\Version=ES64L-G16RevC.01\Sta
 te=1-A\HF=-499.9377267\RMSD=1.188e-09\Dipole=-0.9901887,-0.0478685,0.0
 061463\Quadrupole=1.0181341,-0.507765,-0.5103691,0.0736676,-0.0094753,
 -0.0006873\PG=C01 [X(C1H3Cl1)]\\@
 The archive entry for this job was punched.


 At the touch of love, everyone becomes a poet.
                                -- Plato
 Job cpu time:       0 days  0 hours  0 minutes 53.8 seconds.
 Elapsed time:       0 days  0 hours  0 minutes 16.8 seconds.
 File lengths (MBytes):  RWF=     13 Int=      0 D2E=      0 Chk=      2 Scr=      1
 Normal termination of Gaussian 16 at Fri May 31 17:52:05 2024.
