 Entering Gaussian System, Link 0=/opt/gaussian/g16/C01/g16/g16
 Input=TS_dOr2Us_ll_ad_0-5_0-1_sp_g16.com
 Output=TS_dOr2Us_ll_ad_0-5_0-1_sp_g16.log
 Initial command:
 /opt/gaussian/g16/C01/g16/l1.exe "/home/thijs/scratch/Gau-2621462.inp" -scrdir="/home/thijs/scratch/"
 Entering Link 1 = /opt/gaussian/g16/C01/g16/l1.exe PID=   2621463.
  
 Copyright (c) 1988-2019, Gaussian, Inc.  All Rights Reserved.
  
 This is part of the Gaussian(R) 16 program.  It is based on
 the Gaussian(R) 09 system (copyright 2009, Gaussian, Inc.),
 the Gaussian(R) 03 system (copyright 2003, Gaussian, Inc.),
 the Gaussian(R) 98 system (copyright 1998, Gaussian, Inc.),
 the Gaussian(R) 94 system (copyright 1995, Gaussian, Inc.),
 the Gaussian 92(TM) system (copyright 1992, Gaussian, Inc.),
 the Gaussian 90(TM) system (copyright 1990, Gaussian, Inc.),
 the Gaussian 88(TM) system (copyright 1988, Gaussian, Inc.),
 the Gaussian 86(TM) system (copyright 1986, Carnegie Mellon
 University), and the Gaussian 82(TM) system (copyright 1983,
 Carnegie Mellon University). Gaussian is a federally registered
 trademark of Gaussian, Inc.
  
 This software contains proprietary and confidential information,
 including trade secrets, belonging to Gaussian, Inc.
  
 This software is provided under written license and may be
 used, copied, transmitted, or stored only in accord with that
 written license.
  
 The following legend is applicable only to US Government
 contracts under FAR:
  
                    RESTRICTED RIGHTS LEGEND
  
 Use, reproduction and disclosure by the US Government is
 subject to restrictions as set forth in subparagraphs (a)
 and (c) of the Commercial Computer Software - Restricted
 Rights clause in FAR 52.227-19.
  
 Gaussian, Inc.
 340 Quinnipiac St., Bldg. 40, Wallingford CT 06492
  
  
 ---------------------------------------------------------------
 Warning -- This program may not be used in any manner that
 competes with the business of Gaussian, Inc. or will provide
 assistance to any competitor of Gaussian, Inc.  The licensee
 of this program is prohibited from giving any competitor of
 Gaussian, Inc. access to this program.  By using this program,
 the user acknowledges that Gaussian, Inc. is engaged in the
 business of creating and licensing software in the field of
 computational chemistry and represents and warrants to the
 licensee that it is not a competitor of Gaussian, Inc. and that
 it will not use this program in any manner prohibited above.
 ---------------------------------------------------------------
  

 Cite this work as:
 Gaussian 16, Revision C.01,
 M. J. Frisch, G. W. Trucks, H. B. Schlegel, G. E. Scuseria, 
 M. A. Robb, J. R. Cheeseman, G. Scalmani, V. Barone, 
 G. A. Petersson, H. Nakatsuji, X. Li, M. Caricato, A. V. Marenich, 
 J. Bloino, B. G. Janesko, R. Gomperts, B. Mennucci, H. P. Hratchian, 
 J. V. Ortiz, A. F. Izmaylov, J. L. Sonnenberg, D. Williams-Young, 
 F. Ding, F. Lipparini, F. Egidi, J. Goings, B. Peng, A. Petrone, 
 T. Henderson, D. Ranasinghe, V. G. Zakrzewski, J. Gao, N. Rega, 
 G. Zheng, W. Liang, M. Hada, M. Ehara, K. Toyota, R. Fukuda, 
 J. Hasegawa, M. Ishida, T. Nakajima, Y. Honda, O. Kitao, H. Nakai, 
 T. Vreven, K. Throssell, J. A. Montgomery, Jr., J. E. Peralta, 
 F. Ogliaro, M. J. Bearpark, J. J. Heyd, E. N. Brothers, K. N. Kudin, 
 V. N. Staroverov, T. A. Keith, R. Kobayashi, J. Normand, 
 K. Raghavachari, A. P. Rendell, J. C. Burant, S. S. Iyengar, 
 J. Tomasi, M. Cossi, J. M. Millam, M. Klene, C. Adamo, R. Cammi, 
 J. W. Ochterski, R. L. Martin, K. Morokuma, O. Farkas, 
 J. B. Foresman, and D. J. Fox, Gaussian, Inc., Wallingford CT, 2019.
 
 ******************************************
 Gaussian 16:  ES64L-G16RevC.01  3-Jul-2019
                31-May-2024 
 ******************************************
 %mem=16000MB
 %nprocshared=4
 Will use up to    4 processors via shared memory.
 ----------------------------------------------------------------------
 # PBE1PBE Def2TZVP EmpiricalDispersion=GD3BJ Geom=ModRedun scrf=(smd,s
 olvent=Water)
 ----------------------------------------------------------------------
 1/18=120,38=1,172=1/1;
 2/12=2,17=6,18=5,40=1/2;
 3/5=44,7=101,11=2,25=1,30=1,70=32201,72=1,74=-13,124=41/1,2,3;
 4//1;
 5/5=2,38=5,53=1/2;
 6/7=2,8=2,9=2,10=2,28=1/1;
 99/5=1,9=1/99;
 ------------------------------
 TS_dOr2Us_ll_ad_0-5_0-1_sp_g16
 ------------------------------
 Symbolic Z-matrix:
 Charge = -1 Multiplicity = 1
 C                     4.62211  -0.02702   0.00737 
 Cl                    6.75172   0.0751   -0.01245 
 H                     4.53621  -0.58496  -0.91718 
 H                     4.55176  -0.55648   0.94987 
 H                     4.46607   1.04487  -0.00757 
 F                     2.62821  -0.11992   0.02334 
 
 Add virtual bond connecting atoms F6         and C1         Dist= 3.77D+00.
 The following ModRedundant input section has been read:
 B       1       2 B                                                           
 B       1       6 B                                                           
 
                           ----------------------------
                           !    Current Parameters    !
                           ! (Angstroms and Degrees)  !
 --------------------------                            --------------------------
 ! Name  Definition              Value                                          !
 --------------------------------------------------------------------------------
 ! R1    R(1,2)                  2.1322                                         !
 ! R2    R(1,3)                  1.0833                                         !
 ! R3    R(1,4)                  1.0833                                         !
 ! R4    R(1,5)                  1.0833                                         !
 ! R5    R(1,6)                  1.9961                                         !
 ! A1    A(2,1,3)               95.5052                                         !
 ! A2    A(2,1,4)               95.5294                                         !
 ! A3    A(2,1,5)               95.5287                                         !
 ! A4    A(3,1,4)              119.0564                                         !
 ! A5    A(3,1,5)              119.1068                                         !
 ! A6    A(3,1,6)               84.4712                                         !
 ! A7    A(4,1,5)              119.0934                                         !
 ! A8    A(4,1,6)               84.5734                                         !
 ! A9    A(5,1,6)               84.3923                                         !
 ! A10   L(2,1,6,3,-1)         179.9764                                         !
 ! A11   L(2,1,6,3,-2)         180.1054                                         !
 ! D1    D(2,1,4,3)            -99.4419                                         !
 ! D2    D(2,1,5,3)             99.4511                                         !
 ! D3    D(2,1,5,4)            -99.4766                                         !
 ! D4    D(3,1,5,4)            161.0723                                         !
 ! D5    D(3,1,6,4)            119.9559                                         !
 ! D6    D(3,1,6,5)           -120.0375                                         !
 ! D7    D(4,1,6,5)            120.0066                                         !
 --------------------------------------------------------------------------------
                          Input orientation:                          
 ---------------------------------------------------------------------
 Center     Atomic      Atomic             Coordinates (Angstroms)
 Number     Number       Type             X           Y           Z
 ---------------------------------------------------------------------
      1          6           0        4.622107   -0.027023    0.007368
      2         17           0        6.751719    0.075100   -0.012450
      3          1           0        4.536210   -0.584959   -0.917184
      4          1           0        4.551759   -0.556477    0.949866
      5          1           0        4.466074    1.044867   -0.007570
      6          9           0        2.628211   -0.119918    0.023340
 ---------------------------------------------------------------------
                    Distance matrix (angstroms):
                    1          2          3          4          5
     1  C    0.000000
     2  Cl   2.132151   0.000000
     3  H    1.083267   2.482479   0.000000
     4  H    1.083316   2.482895   1.867332   0.000000
     5  H    1.083290   2.482870   1.867793   1.867707   0.000000
     6  F    1.996123   4.128272   2.177455   2.179236   2.176102
                    6
     6  F    0.000000
 Stoichiometry    CH3ClF(1-)
 Framework group  C1[X(CH3ClF)]
 Deg. of freedom    12
 Full point group                 C1      NOp   1
 Largest Abelian subgroup         C1      NOp   1
 Largest concise Abelian subgroup C1      NOp   1
                         Standard orientation:                         
 ---------------------------------------------------------------------
 Center     Atomic      Atomic             Coordinates (Angstroms)
 Number     Number       Type             X           Y           Z
 ---------------------------------------------------------------------
      1          6           0       -0.513394   -0.000931    0.001010
      2         17           0        1.618757    0.000271   -0.000272
      3          1           0       -0.617510   -0.609910   -0.888806
      4          1           0       -0.616930   -0.467714    0.973104
      5          1           0       -0.618418    1.074137   -0.080946
      6          9           0       -2.509516    0.000497   -0.000533
 ---------------------------------------------------------------------
 Rotational constants (GHZ):         143.7652821           2.3253069           2.3252956
 Standard basis: def2TZVP (5D, 7F)
 There are   132 symmetry adapted cartesian basis functions of A   symmetry.
 There are   117 symmetry adapted basis functions of A   symmetry.
   117 basis functions,   195 primitive gaussians,   132 cartesian basis functions
    18 alpha electrons       18 beta electrons
       nuclear repulsion energy        86.3173077794 Hartrees.
 NAtoms=    6 NActive=    6 NUniq=    6 SFac= 1.00D+00 NAtFMM=   60 NAOKFM=F Big=F
 Integral buffers will be    131072 words long.
 Raffenetti 2 integral format.
 Two-electron integral symmetry is turned on.
 Nuclear repulsion after empirical dispersion term =       86.3149026700 Hartrees.
 ------------------------------------------------------------------------------
 Polarizable Continuum Model (PCM)
 =================================
 Model                : PCM.
 Atomic radii         : SMD-Coulomb.
 Polarization charges : Total charges.
 Charge compensation  : None.
 Solution method      : On-the-fly selection.
 Cavity type          : VdW (van der Waals Surface) (Alpha=1.000).
 Cavity algorithm     : GePol (No added spheres)
                        Default sphere list used, NSphG=    6.
                        Lebedev-Laikov grids with approx.  5.0 points / Ang**2.
                        Smoothing algorithm: York/Karplus (Gamma=1.0000).
                        Polarization charges: spherical gaussians, with
                                              point-specific exponents (IZeta= 3).
                        Self-potential: point-specific (ISelfS= 7).
                        Self-field    : sphere-specific E.n sum rule (ISelfD= 2).
 Solvent              : Water, Eps=  78.355300 Eps(inf)=   1.777849
 ------------------------------------------------------------------------------
 Spheres list:
 ISph  on   Nord     Re0    Alpha      Xe            Ye            Ze
    1   C      1    1.8500  1.000     -0.513394     -0.000931      0.001010
    2  Cl      2    2.3800  1.000      1.618757      0.000271     -0.000272
    3   H      3    1.2000  1.000     -0.617510     -0.609910     -0.888806
    4   H      4    1.2000  1.000     -0.616930     -0.467714      0.973104
    5   H      5    1.2000  1.000     -0.618418      1.074137     -0.080946
    6   F      6    1.7300  1.000     -2.509516      0.000497     -0.000533
 ------------------------------------------------------------------------------
 ------------------------------------------------------------------------------
 Atomic radii for non-electrostatic terms: SMD-CDS.
 ------------------------------------------------------------------------------
 Nuclear repulsion after PCM non-electrostatic terms =       86.3193685064 Hartrees.
 One-electron integrals computed using PRISM.
   1 Symmetry operations used in ECPInt.
 ECPInt:  NShTT=    1128 NPrTT=    3744 LenC2=    1095 LenP2D=    3023.
 LDataN:  DoStor=T MaxTD1= 6 Len=  172
 NBasis=   117 RedAO= T EigKep=  1.43D-03  NBF=   117
 NBsUse=   117 1.00D-06 EigRej= -1.00D+00 NBFU=   117
 ExpMin= 9.52D-02 ExpMax= 6.95D+04 ExpMxC= 2.37D+03 IAcc=3 IRadAn=         5 AccDes= 0.00D+00
 Harris functional with IExCor= 1009 and IRadAn=       5 diagonalized for initial guess.
 HarFok:  IExCor= 1009 AccDes= 0.00D+00 IRadAn=         5 IDoV= 1 UseB2=F ITyADJ=14
 ICtDFT=  3500011 ScaDFX=  1.000000  1.000000  1.000000  1.000000
 FoFCou: FMM=F IPFlag=           0 FMFlag=      100000 FMFlg1=           0
         NFxFlg=           0 DoJE=T BraDBF=F KetDBF=T FulRan=T
         wScrn=  0.000000 ICntrl=       500 IOpCl=  0 I1Cent=   200000004 NGrid=           0
         NMat0=    1 NMatS0=      1 NMatT0=    0 NMatD0=    1 NMtDS0=    0 NMtDT0=    0
 Petite list used in FoFCou.
 Keep R1 ints in memory in canonical form, NReq=27668942.
 Requested convergence on RMS density matrix=1.00D-08 within 128 cycles.
 Requested convergence on MAX density matrix=1.00D-06.
 Requested convergence on             energy=1.00D-06.
 No special actions if energy rises.
 Inv3:  Mode=1 IEnd=     1669548.
 Iteration    1 A*A^-1 deviation from unit magnitude is 2.66D-15 for    742.
 Iteration    1 A*A^-1 deviation from orthogonality  is 1.07D-15 for    733    731.
 Iteration    1 A^-1*A deviation from unit magnitude is 2.66D-15 for    729.
 Iteration    1 A^-1*A deviation from orthogonality  is 1.03D-15 for    280    140.
 Error on total polarization charges =  0.01425
 SCF Done:  E(RPBE1PBE) =  -599.839762433     A.U. after   11 cycles
            NFock= 11  Conv=0.39D-08     -V/T= 2.0019
 SMD-CDS (non-electrostatic) energy       (kcal/mol) =       2.80
 (included in total energy above)

 **********************************************************************

            Population analysis using the SCF Density.

 **********************************************************************

 Orbital symmetries:
       Occupied  (A) (A) (A) (A) (A) (A) (A) (A) (A) (A) (A) (A)
                 (A) (A) (A) (A) (A) (A)
       Virtual   (A) (A) (A) (A) (A) (A) (A) (A) (A) (A) (A) (A)
                 (A) (A) (A) (A) (A) (A) (A) (A) (A) (A) (A) (A)
                 (A) (A) (A) (A) (A) (A) (A) (A) (A) (A) (A) (A)
                 (A) (A) (A) (A) (A) (A) (A) (A) (A) (A) (A) (A)
                 (A) (A) (A) (A) (A) (A) (A) (A) (A) (A) (A) (A)
                 (A) (A) (A) (A) (A) (A) (A) (A) (A) (A) (A) (A)
                 (A) (A) (A) (A) (A) (A) (A) (A) (A) (A) (A) (A)
                 (A) (A) (A) (A) (A) (A) (A) (A) (A) (A) (A) (A)
                 (A) (A) (A)
 The electronic state is 1-A.
 Alpha  occ. eigenvalues -- -101.62582 -24.59455 -10.26469  -9.45166  -7.18329
 Alpha  occ. eigenvalues --   -7.17875  -7.17875  -1.02190  -0.77611  -0.66937
 Alpha  occ. eigenvalues --   -0.43443  -0.43436  -0.35185  -0.28670  -0.28669
 Alpha  occ. eigenvalues --   -0.26824  -0.26823  -0.25740
 Alpha virt. eigenvalues --    0.02733   0.08419   0.14251   0.14254   0.23230
 Alpha virt. eigenvalues --    0.23235   0.24891   0.33264   0.40209   0.40209
 Alpha virt. eigenvalues --    0.41809   0.44442   0.44444   0.48720   0.49190
 Alpha virt. eigenvalues --    0.49197   0.51644   0.51647   0.60403   0.63235
 Alpha virt. eigenvalues --    0.65253   0.65261   0.83949   0.83952   0.87707
 Alpha virt. eigenvalues --    0.97276   0.97294   1.09238   1.18447   1.46506
 Alpha virt. eigenvalues --    1.49880   1.55109   1.55127   1.58154   1.76253
 Alpha virt. eigenvalues --    1.76265   1.84493   1.84496   1.89242   1.89265
 Alpha virt. eigenvalues --    1.89321   1.95401   1.95614   1.95618   2.08284
 Alpha virt. eigenvalues --    2.08285   2.08913   2.11608   2.11621   2.15907
 Alpha virt. eigenvalues --    2.16177   2.27764   2.27766   2.27985   2.30739
 Alpha virt. eigenvalues --    2.30754   2.33146   2.33191   2.59359   2.59377
 Alpha virt. eigenvalues --    2.60939   2.73940   2.73982   2.77261   2.91152
 Alpha virt. eigenvalues --    3.10791   3.10823   3.21495   3.21517   3.30066
 Alpha virt. eigenvalues --    3.35511   3.35554   3.47611   3.47677   3.60620
 Alpha virt. eigenvalues --    3.74158   3.97847   4.17934   4.17962   4.26367
 Alpha virt. eigenvalues --    4.68914   7.03518   7.03519   7.03792   7.03845
 Alpha virt. eigenvalues --    7.06870   7.06877   7.09398   8.43316   8.43317
 Alpha virt. eigenvalues --    8.54591   8.54597   8.84332  10.81707  10.81707
 Alpha virt. eigenvalues --   11.08501  22.22226  24.80958  56.87551
          Condensed to atoms (all electrons):
               1          2          3          4          5          6
     1  C    4.815863   0.101577   0.418071   0.417891   0.418109   0.022857
     2  Cl   0.101577  17.534058  -0.028322  -0.028241  -0.028361   0.005911
     3  H    0.418071  -0.028322   0.483797  -0.017320  -0.017216  -0.014754
     4  H    0.417891  -0.028241  -0.017320   0.483837  -0.017259  -0.014722
     5  H    0.418109  -0.028361  -0.017216  -0.017259   0.483651  -0.014757
     6  F    0.022857   0.005911  -0.014754  -0.014722  -0.014757   9.791867
 Mulliken charges:
               1
     1  C   -0.194368
     2  Cl  -0.556621
     3  H    0.175744
     4  H    0.175814
     5  H    0.175833
     6  F   -0.776402
 Sum of Mulliken charges =  -1.00000
 Mulliken charges with hydrogens summed into heavy atoms:
               1
     1  C    0.333024
     2  Cl  -0.556621
     6  F   -0.776402
 Electronic spatial extent (au):  <R**2>=            467.3656
 Charge=             -1.0000 electrons
 Dipole moment (field-independent basis, Debye):
    X=              3.8043    Y=             -0.0039    Z=              0.0048  Tot=              3.8043
 Quadrupole moment (field-independent basis, Debye-Ang):
   XX=            -58.7948   YY=            -26.8870   ZZ=            -26.8888
   XY=              0.0038   XZ=             -0.0055   YZ=             -0.0002
 Traceless Quadrupole moment (field-independent basis, Debye-Ang):
   XX=            -21.2713   YY=             10.6366   ZZ=             10.6347
   XY=              0.0038   XZ=             -0.0055   YZ=             -0.0002
 Octapole moment (field-independent basis, Debye-Ang**2):
  XXX=             40.3483  YYY=              1.0966  ZZZ=              0.2585  XYY=             -4.8451
  XXY=             -0.0095  XXZ=              0.0116  XZZ=             -4.8422  YZZ=             -1.0996
  YYZ=             -0.2547  XYZ=             -0.0001
 Hexadecapole moment (field-independent basis, Debye-Ang**3):
 XXXX=           -666.6344 YYYY=            -35.0765 ZZZZ=            -35.0704 XXXY=              0.0247
 XXXZ=             -0.0297 YYYX=             -0.6890 YYYZ=              0.0019 ZZZX=             -0.1561
 ZZZY=             -0.0042 XXYY=            -90.4117 XXZZ=            -90.4138 YYZZ=            -11.6884
 XXYZ=             -0.0000 YYXZ=              0.1602 ZZXY=              0.6828
 N-N= 8.631936850642D+01 E-N=-1.607796208478D+03  KE= 5.987130038187D+02
 Unable to Open any file for archive entry.
 1\1\GINC-DALE\SP\RPBE1PBE\def2TZVP\C1H3Cl1F1(1-)\THIJS\31-May-2024\0\\
 # PBE1PBE Def2TZVP EmpiricalDispersion=GD3BJ Geom=ModRedun scrf=(smd,s
 olvent=Water)\\TS_dOr2Us_ll_ad_0-5_0-1_sp_g16\\-1,1\C,0,4.622107,-0.02
 7023,0.007368\Cl,0,6.751719,0.0751,-0.01245\H,0,4.53621,-0.584959,-0.9
 17184\H,0,4.551759,-0.556477,0.949866\H,0,4.466074,1.044867,-0.00757\F
 ,0,2.628211,-0.119918,0.02334\\Version=ES64L-G16RevC.01\State=1-A\HF=-
 599.8397624\RMSD=3.880e-09\Dipole=1.4950825,0.0691426,-0.0112936\Quadr
 upole=-15.7601489,7.8552528,7.9048961,-1.117698,0.2029514,0.0095253\PG
 =C01 [X(C1H3Cl1F1)]\\@
 The archive entry for this job was punched.


 ERWIN WITH HIS PSI CAN DO
 CALCULATIONS QUITE A FEW.
 BUT ONE THING HAS NOT BEEN SEEN
 JUST WHAT DOES PSI REALLY MEAN.
 -- WALTER HUCKEL, TRANS. BY FELIX BLOCH
 Job cpu time:       0 days  0 hours  1 minutes  6.4 seconds.
 Elapsed time:       0 days  0 hours  0 minutes 20.1 seconds.
 File lengths (MBytes):  RWF=     21 Int=      0 D2E=      0 Chk=      2 Scr=      1
 Normal termination of Gaussian 16 at Fri May 31 17:53:09 2024.
