12
4ClPh.log	Energy: -434135.4811766
H          0.00146       -3.30655       -0.00000
C          0.00146       -2.24655       -0.00000
C          1.20355       -1.55655       -0.00000
H          2.10864       -2.08655       -0.00000
C          1.18940       -0.17655       -0.00000
H          2.10864        0.35345       -0.00000
C          0.00146        0.51345       -0.00000
Cl         0.00146        2.23345       -0.00000
C         -1.20062       -0.17655        0.00000
H         -2.10572        0.35345        0.00000
C         -1.20062       -1.55655        0.00000
H         -2.10572       -2.08655        0.00000
