23
CEt3.log	Energy: -173430.0968348
H          0.35935        0.50499        1.52415
C          0.15376        0.02949        0.55377
C         -0.97340       -1.01087        0.72425
H         -0.66052       -1.77846        1.44217
H         -1.88300       -0.51315        1.08116
C         -1.26123       -1.67657       -0.63428
H         -2.06169       -2.41761       -0.52100
H         -1.57578       -0.90434       -1.36546
H         -0.34367       -2.17961       -1.00161
C         -0.28736        1.10172       -0.45630
H          0.52125        1.84640       -0.58443
H         -0.49295        0.62623       -1.42668
C         -1.55964        1.80292        0.04779
H         -1.87439        2.56618       -0.67895
H         -2.36029        1.05292        0.16551
H         -1.35405        2.27841        1.01817
C          1.42604       -0.67171        0.04968
H          1.73892       -1.43929        0.76760
H          1.22045       -1.14720       -0.92070
C          2.55320        0.36866       -0.12080
H          3.46094       -0.13339       -0.48654
H          2.23845        1.13192       -0.84755
H          2.75879        0.84415        0.84958
