23
CHiPr2.log	Energy: -173436.4521653
H          0.17435       -1.39718       -0.88576
C         -0.00049       -0.76479       -0.00286
H         -0.17590       -1.39678        0.87606
C          1.23439        0.11724        0.24533
H          1.05954        0.74963        1.12823
C          2.46849       -0.76742        0.48798
H          3.34876       -0.13329        0.66908
H          2.28534       -1.40520        1.36951
H          2.64333       -1.39981       -0.39492
C          1.47996        1.01589       -0.98512
H          2.36024        1.65003       -0.80402
H          1.65481        0.38350       -1.86802
H          0.59866        1.65190       -1.15422
C         -1.23460        0.11987       -0.24551
H         -1.05918        0.76919       -1.12438
C         -2.46948       -0.76215       -0.49371
H         -3.35078       -0.12614       -0.66281
H         -2.29463       -1.39454       -1.37661
H         -2.63875       -1.39994        0.39058
C         -1.47938        1.00522        0.99055
H         -2.35295        1.64701        0.81884
H         -1.65479        0.37322        1.86947
H         -0.59137        1.64513        1.16904
