23
CHPr2.log	Energy: -173434.7504531
H          0.42003        2.19655       -0.79555
C         -0.00039        1.56193       -0.00151
H         -0.42116        2.19170        0.79161
C         -1.11224        0.67784       -0.59028
H         -1.90780        1.30662       -1.00768
H         -0.69146        0.03075       -1.38339
C         -1.70083       -0.21063        0.52137
H         -0.90093       -0.85096        0.94570
H         -2.12160        0.41914        1.31449
C         -2.80835       -1.10627       -0.06047
H         -3.22876       -1.74089        0.73357
H         -3.60008       -0.47172       -0.48508
H         -2.39190       -1.74182       -0.86050
C          1.11197        0.67933        0.58856
H          1.90335        1.30918        1.01224
H          0.69156        0.04471        1.38260
C          1.70106       -0.21621       -0.52180
H          0.90586       -0.85182       -0.93827
H          2.12148        0.41842       -1.31584
C          2.80909       -1.10459        0.06135
H          3.22604       -1.74013       -0.72454
H          3.60480       -0.46896        0.49195
H          2.38867       -1.73921        0.85540
