2
H.log	Energy:    -734.1254509
H          0.00000        0.00000        0.33000
H          0.00000        0.00000       -0.33000
