11
iPr.log	Energy:  -74763.2043920
H         -0.89846        1.24819       -0.00000
C         -0.00031        0.61310       -0.00000
H          0.89783        1.24241       -0.00000
C         -0.00031       -0.27024        1.25865
H          0.89783       -0.90533        1.25865
H          0.00377        0.35907        2.15668
H         -0.89846       -0.91688        1.25865
C         -0.00031       -0.27024       -1.25865
H          0.89783       -0.90533       -1.25865
H         -0.89846       -0.91688       -1.25865
H          0.00377        0.35907       -2.15668
