11
nPr.log	Energy:  -74762.9427049
H         -2.15581        0.36103       -0.00000
C         -1.25831       -0.27496       -0.00000
H         -1.25487       -0.91005        0.89803
H         -1.25487       -0.91005       -0.89803
C         -0.00000        0.61865       -0.00000
H          0.00472        1.24796       -0.89803
H          0.00472        1.24796        0.89803
C          1.25650       -0.27174        0.00000
H          2.15529        0.35666        0.00000
H          1.25585       -0.91260        0.90510
H          1.25585       -0.91260       -0.90510
