12
Ph.log	Energy: -145734.4886147
H         -2.11516        1.21644        0.00000
C         -1.19584        0.68875        0.00000
C          0.00101        1.38779       -0.00000
H         -0.00808        2.43661        0.00000
C          1.19081        0.68853       -0.00000
H          2.10809        1.22192       -0.00000
C          1.19785       -0.68524       -0.00000
H          2.11717       -1.21293       -0.00000
C          0.00101       -1.38428       -0.00000
H          0.01009       -2.43310       -0.00000
C         -1.19584       -0.69729        0.00000
H         -2.10608       -1.21842        0.00000
